ITEM: TIMESTEP
0
ITEM: NUMBER OF ATOMS
255
ITEM: BOX BOUNDS pp pp pp
-41.906 38.266
11.9905 92.6685
38.3555 118.733
ITEM: ATOMS id type xu yu zu
 1 1 -1.674 48.889 80.614
 2 2 -2.489 49.24 81.095
 3 3 -1.731 47.883 80.685
 4 4 -1.722 49.102 79.628
 5 5 -0.373 49.376 81.139
 6 6 0.385 49.059 80.422
 7 7 -0.332 50.876 81.416
 8 8 -0.859 50.98 82.365
 9 9 0.724 51.122 81.527
 10 10 -0.924 51.781 80.424
 11 11 -0.672 51.678 79.204
 12 12 -1.757 52.695 80.835
 13 13 -2.291 53.224 80.161
 14 14 -1.869 52.774 81.836
 15 15 -0.129 48.631 82.452
 16 16 -1.11 48.094 83.001
 17 1 1.072 48.518 83.089
 18 2 1.901 48.806 82.589
 19 5 1.259 48.074 84.509
 20 17 2.34 48.102 84.644
 21 18 0.739 48.696 85.239
 22 15 0.843 46.59 84.642
 23 16 1.427 45.686 84.056
 24 1 -0.208 46.325 85.32
 25 2 -0.727 47.137 85.623
 26 5 -0.681 45.004 85.573
 27 6 -0.038 44.335 86.146
 28 7 -1.871 45.167 86.473
 29 8 -2.21 44.209 86.868
 30 9 -1.632 45.749 87.363
 31 10 -2.975 45.958 85.743
 32 11 -3.659 45.44 84.84
 33 19 -3.144 47.175 86.017
 34 15 -1.075 44.135 84.382
 35 16 -0.988 42.933 84.371
 36 1 -1.47 44.791 83.24
 37 2 -1.568 45.796 83.27
 38 5 -1.694 44.091 81.983
 39 6 -0.906 43.343 81.903
 40 7 -3.094 43.49 82.097
 41 8 -3.137 42.725 82.872
 42 9 -3.815 44.304 82.17
 43 20 -3.416 42.612 80.521
 44 21 -4.73 42.569 80.756
 45 15 -1.522 45.016 80.733
 46 16 -1.989 46.141 80.744
 47 1 -0.741 44.588 79.717
 48 2 -0.312 43.687 79.871
 49 5 -0.043 45.386 78.654
 50 6 0.507 44.699 78.01
 51 7 -1.18 45.957 77.738
 52 8 -1.779 46.702 78.263
 53 9 -0.613 46.419 76.93
 54 10 -2.126 44.942 77.093
 55 22 -3.488 44.744 77.538
 56 23 -3.833 45.327 78.379
 57 24 -4.234 43.809 76.95
 58 25 -5.231 43.605 77.313
 59 26 -3.799 43.014 75.901
 60 27 -4.35 42.22 75.42
 61 28 -2.48 43.253 75.43
 62 29 -2.056 42.639 74.649
 63 30 -1.593 44.168 75.989
 64 31 -0.558 44.239 75.687
 65 15 1.006 46.445 79.123
 66 16 1.078 46.844 80.275
 67 1 1.834 46.813 78.104
 68 2 1.584 46.502 77.177
 69 5 2.924 47.702 78.148
 70 6 3.129 47.943 79.191
 71 7 4.164 47.044 77.531
 72 32 3.991 46.675 76.52
 73 33 5.333 48.065 77.36
 74 34 5.525 48.687 78.234
 75 35 6.293 47.596 77.144
 76 36 5.067 48.709 76.522
 77 37 4.68 45.936 78.427
 78 38 5.698 45.658 78.151
 79 39 4.747 46.264 79.464
 80 22 3.893 44.6 78.403
 81 40 3.107 44.727 79.148
 82 41 3.427 44.498 77.423
 83 42 4.55 43.802 78.749
 84 15 2.532 49.01 77.434
 85 16 1.995 48.938 76.37
 86 1 2.715 50.192 78.021
 87 2 3.071 50.181 78.966
 88 5 2.353 51.52 77.414
 89 6 1.324 51.413 77.069
 90 7 2.473 52.624 78.522
 91 8 1.818 52.337 79.344
 92 9 3.46 52.638 78.984
 93 10 2.154 54.151 78.186
 94 21 2.741 54.37 77.294
 95 22 2.533 55.295 79.128
 96 40 2.29 56.234 78.629
 97 41 2.109 55.263 80.132
 98 42 3.613 55.217 79.254
 99 30 0.725 54.387 77.786
 100 13 0.086 54.379 78.67
 101 14 0.752 55.347 77.27
 102 43 0.372 53.634 77.081
 103 15 3.383 51.866 76.309
 104 16 4.579 51.727 76.481
 105 44 2.979 52.264 75.112
 106 45 1.624 52.671 74.66
 107 46 1.616 54.113 74.247
 108 47 2.697 54.467 73.182
 109 48 2.632 55.902 72.944
 110 49 3.383 56.545 71.666
 111 50 3.058 55.693 70.596
 112 51 4.67 56.931 72.095
 113 52 2.439 57.998 71.338
 114 53 1.279 58.072 70.545
 115 54 0.498 59.265 70.409
 116 55 0.92 60.394 71.097
 117 56 2.139 60.392 71.817
 118 57 2.833 59.166 72.038
 119 58 3.776 59.107 72.561
 120 59 2.544 61.294 72.252
 121 60 0.234 61.687 70.902
 122 61 0.653 62.295 70.1
 123 62 0.321 62.262 71.823
 124 63 -0.8 61.488 70.619
 125 64 -0.396 59.27 69.804
 126 65 0.887 57.228 69.995
 127 66 3.309 56.306 73.575
 128 67 2.283 54.008 72.284
 129 68 1.699 54.912 74.984
 130 69 0.687 54.264 73.698
 131 70 1.443 52.069 73.77
 132 71 0.833 52.365 75.346
 133 72 3.896 52.441 73.99
 134 73 4.856 51.979 74.222
 135 3 3.476 52.002 73.085
 136 74 4.145 53.88 73.593
 137 75 4.376 54.407 74.518
 138 76 5.231 54.028 72.541
 139 77 5.178 53.227 71.282
 140 78 6.456 53.509 70.616
 141 79 7.423 54.089 71.645
 142 80 8.298 53.456 71.79
 143 81 7.613 55.155 71.514
 144 82 6.322 54.124 69.726
 145 83 6.775 52.516 70.301
 146 84 4.274 53.441 70.712
 147 85 5.159 52.156 71.484
 148 86 6.648 53.82 72.988
 149 87 6.769 52.81 73.379
 150 88 7.089 54.82 74.107
 151 89 7.885 54.515 75.028
 152 1 6.577 56.088 74.006
 153 2 6.14 56.184 73.1
 154 5 6.592 57.159 75.009
 155 6 7.116 56.745 75.87
 156 7 7.421 58.338 74.525
 157 8 8.464 58.046 74.399
 158 9 7.053 58.797 73.608
 159 10 7.534 59.526 75.422
 160 90 6.753 60.684 75.266
 161 24 6.924 61.457 76.396
 162 25 6.528 62.439 76.612
 163 91 7.857 60.811 77.139
 164 29 7.867 61.073 78.114
 165 30 8.196 59.66 76.6
 166 31 8.789 58.905 77.096
 167 15 5.209 57.468 75.652
 168 16 4.186 57.044 75.129
 169 1 5.215 58.292 76.743
 170 2 6.112 58.704 76.957
 171 5 4.043 58.474 77.555
 172 6 3.715 57.452 77.742
 173 7 4.361 59.163 78.904
 174 8 5.239 58.662 79.312
 175 9 4.64 60.187 78.653
 176 10 3.285 59.168 80.045
 177 92 2.783 58.201 80.088
 178 93 3.82 59.398 80.966
 179 94 2.166 60.124 79.981
 180 95 2.13 61.042 79.182
 181 91 1.214 59.923 80.803
 182 96 0.577 60.704 80.878
 183 97 1.29 59.166 81.466
 184 15 2.934 59.215 76.773
 185 16 3.111 60.301 76.176
 186 1 1.725 58.675 76.768
 187 2 1.73 57.719 77.093
 188 5 0.483 59.204 76.128
 189 6 0.402 60.291 76.118
 190 7 0.411 58.626 74.699
 191 8 1.287 58.992 74.164
 192 9 0.457 57.537 74.726
 193 10 -0.74 58.932 73.883
 194 22 -1.282 60.096 73.689
 195 23 -0.832 61.008 74.053
 196 98 -2.354 60.07 72.834
 197 25 -2.958 60.854 72.633
 198 28 -2.455 58.786 72.329
 199 99 -3.31 58.16 71.391
 200 100 -4.095 58.763 70.96
 201 101 -3.32 56.785 71.17
 202 102 -4.134 56.361 70.602
 203 103 -2.413 55.994 71.95
 204 104 -2.431 54.915 71.9
 205 105 -1.401 56.63 72.719
 206 106 -0.601 56.058 73.164
 207 30 -1.488 58.01 73.006
 208 15 -0.822 58.818 76.91
 209 16 -0.938 57.684 77.403
 210 1 -1.777 59.674 77.089
 211 2 -1.562 60.586 76.711
 212 5 -3.074 59.462 77.643
 213 6 -3.028 58.487 78.128
 214 7 -3.374 60.507 78.733
 215 8 -3.459 61.473 78.235
 216 9 -4.343 60.21 79.134
 217 20 -2.129 60.769 79.977
 218 21 -1.223 61.331 79.173
 219 15 -4.174 59.4 76.577
 220 16 -4.143 60.081 75.571
 221 1 -5.24 58.688 76.903
 222 2 -5.112 58.044 77.67
 223 5 -6.548 58.683 76.219
 224 17 -6.846 59.716 76.045
 225 18 -6.306 58.181 75.282
 226 15 -7.704 58.046 76.961
 227 16 -7.669 57.745 78.144
 228 1 -8.814 57.86 76.252
 229 2 -8.769 58.052 75.261
 230 5 -10.037 57.178 76.77
 231 6 -10.472 57.797 77.555
 232 7 -11.157 57.156 75.747
 233 8 -10.877 56.59 74.858
 234 9 -11.997 56.685 76.258
 235 107 -11.548 58.44 75.278
 236 21 -12.429 58.624 75.612
 237 15 -9.826 55.701 77.172
 238 16 -10.696 55.157 77.888
 239 1 -8.699 55.089 76.693
 240 2 -8.017 55.671 76.229
 241 5 -8.339 53.751 77.202
 242 6 -8.756 53.625 78.201
 243 7 -8.871 52.633 76.312
 244 8 -8.791 52.841 75.245
 245 9 -8.266 51.741 76.475
 246 10 -10.299 52.308 76.564
 247 11 -11.167 52.715 75.792
 248 12 -10.573 51.478 77.533
 249 13 -11.542 51.292 77.75
 250 14 -9.866 51.006 78.079
 251 15 -6.792 53.7 77.416
 252 16 -6.115 52.729 77.149
 253 1 -6.187 54.802 77.851
 254 108 -6.677 55.652 78.088
 255 109 -5.179 54.865 77.828
ITEM: TIMESTEP
1
ITEM: NUMBER OF ATOMS
255
ITEM: BOX BOUNDS pp pp pp
32.274 112.446
-0.289001 80.389
36.016 116.394
ITEM: ATOMS id type xu yu zu
 1 1 67.7 36.35 77.64
 2 2 68.68 36.12 77.54
 3 3 67.51 36.73 78.55
 4 4 67.5 37.09 76.99
 5 5 66.89 35.19 77.37
 6 6 65.91 35.67 77.3
 7 7 67.1 34.61 75.92
 8 8 68.03 34.03 75.88
 9 9 66.26 33.94 75.71
 10 10 67.08 35.63 74.83
 11 11 66.9 36.79 75.08
 12 12 67.35 35.34 73.57
 13 13 67.29 36.06 72.86
 14 14 67.57 34.37 73.37
 15 15 66.87 34.1 78.41
 16 16 67.93 33.84 79.06
 17 1 65.68 33.55 78.65
 18 2 64.91 33.94 78.12
 19 5 65.41 32.58 79.67
 20 17 64.44 32.12 79.5
 21 18 66.07 31.71 79.65
 22 15 65.51 33.04 81.09
 23 16 65.96 34.13 81.39
 24 1 65.19 32.13 82.06
 25 2 64.87 31.22 81.76
 26 5 65.51 32.25 83.49
 27 6 65.17 33.27 83.7
 28 7 64.75 31.11 84.09
 29 8 64.61 31.32 85.15
 30 9 63.71 31.1 83.76
 31 10 65.4 29.66 84.03
 32 11 66.01 29.28 82.99
 33 19 65.34 28.94 85.06
 34 15 67.01 32.17 83.86
 35 16 67.25 32.45 85.07
 36 1 67.9 31.83 82.96
 37 2 67.46 31.65 82.07
 38 5 69.36 31.86 83.09
 39 6 69.52 31.72 84.15
 40 7 69.99 30.64 82.43
 41 8 69.74 30.61 81.37
 42 9 71.07 30.7 82.48
 43 20 69.38 29.07 83.22
 44 21 68.08 29.34 83.12
 45 15 70 33.21 82.52
 46 16 71.25 33.43 82.46
 47 1 69.2 34.12 82.01
 48 2 68.22 33.92 81.92
 49 5 69.57 35.44 81.42
 50 6 68.79 35.85 80.78
 51 7 69.61 36.47 82.58
 52 8 70.52 36.33 83.16
 53 9 69.65 37.39 82
 54 10 68.45 36.58 83.52
 55 22 68.43 35.8 84.69
 56 23 69.37 35.34 84.95
 57 24 67.22 35.76 85.42
 58 25 67.07 35.15 86.3
 59 26 66.14 36.55 85.03
 60 27 65.26 36.46 85.65
 61 28 66.21 37.37 83.88
 62 29 65.51 38.17 83.71
 63 30 67.32 37.29 83.04
 64 31 67.47 37.88 82.15
 65 15 70.84 35.36 80.57
 66 16 71.7 36.25 80.74
 67 1 70.78 34.36 79.69
 68 2 69.9 33.92 79.46
 69 5 71.75 34.21 78.65
 70 6 72.72 34.49 79.07
 71 7 71.91 32.71 78.24
 72 32 70.94 32.47 77.8
 73 33 73 32.59 77.15
 74 34 72.89 33.26 76.29
 75 35 74.02 32.77 77.49
 76 36 72.89 31.6 76.72
 77 37 72.2 31.75 79.43
 78 38 73.28 31.71 79.58
 79 39 71.73 32.18 80.31
 80 22 71.58 30.4 79.1
 81 40 71.82 29.62 79.83
 82 41 70.52 30.64 79.1
 83 42 71.9 30.09 78.11
 84 15 71.33 35.07 77.49
 85 16 70.18 35.05 76.99
 86 1 72.2 35.98 77.12
 87 2 73.14 35.87 77.47
 88 5 72.03 36.87 75.96
 89 6 71.21 37.54 76.23
 90 7 73.29 37.72 75.75
 91 8 74.17 37.08 75.87
 92 9 73.27 38.15 74.75
 93 10 73.4 38.9 76.7
 94 21 72.84 38.63 77.6
 95 22 72.59 40.05 76.06
 96 40 71.57 39.72 75.88
 97 41 72.44 40.9 76.73
 98 42 72.97 40.34 75.08
 99 30 74.81 39.36 76.84
 100 13 75.41 38.69 77.46
 101 14 75.33 39.55 75.9
 102 43 74.65 40.3 77.38
 103 15 71.75 36.05 74.64
 104 16 72.21 34.91 74.55
 105 44 70.94 36.51 73.68
 106 45 70.07 37.67 73.98
 107 46 70.67 38.85 73.24
 108 47 70.79 38.59 71.71
 109 48 71.63 39.58 71.1
 110 49 70.93 40.87 70.38
 111 50 70.59 41.91 71.33
 112 51 69.96 40.21 69.45
 113 52 72.3 41.48 69.53
 114 53 73.47 42 70.14
 115 54 74.62 42.32 69.38
 116 55 74.61 42.09 68
 117 56 73.4 41.75 67.37
 118 57 72.25 41.39 68.09
 119 58 71.41 41.07 67.48
 120 59 73.43 41.59 66.3
 121 60 75.87 42.23 67.17
 122 61 76.54 41.43 67.49
 123 62 76.36 43.17 67.43
 124 63 75.65 42.22 66.11
 125 64 75.53 42.67 69.86
 126 65 73.61 42.09 71.21
 127 66 71.97 39.2 70.22
 128 67 69.76 38.51 71.34
 129 68 71.69 39.01 73.61
 130 69 70.14 39.75 73.54
 131 70 69.18 37.37 73.43
 132 71 69.82 37.81 75.03
 133 72 70.87 36.07 72.31
 134 73 71.56 35.22 72.28
 135 3 69.85 35.82 72.01
 136 74 71.43 37.17 71.42
 137 75 72.47 37.2 71.75
 138 76 71.47 36.83 69.94
 139 77 70.29 37.03 69.04
 140 78 70.42 36.01 67.89
 141 79 71.78 35.32 68.2
 142 80 71.82 34.29 67.84
 143 81 72.55 35.89 67.69
 144 82 70.38 36.6 66.98
 145 83 69.65 35.24 67.92
 146 84 70.21 38.02 68.6
 147 85 69.34 36.91 69.57
 148 86 71.87 35.43 69.68
 149 87 71.16 34.74 70.13
 150 88 73.34 34.97 70.04
 151 89 73.71 33.84 70.4
 152 1 74.26 35.93 69.97
 153 2 73.86 36.74 69.52
 154 5 75.59 35.85 70.54
 155 6 76.13 34.94 70.27
 156 7 76.33 37.13 70.11
 157 8 76.1 37.25 69.05
 158 9 75.88 38.03 70.52
 159 10 77.87 37.13 70.31
 160 90 78.36 37.27 71.62
 161 24 79.7 36.92 71.48
 162 25 80.35 36.88 72.35
 163 91 80 36.68 70.13
 164 29 80.92 36.43 69.82
 165 30 78.76 36.69 69.42
 166 31 78.62 36.29 68.43
 167 15 75.55 35.86 72.1
 168 16 74.92 36.76 72.65
 169 1 76.26 34.99 72.81
 170 2 76.89 34.44 72.25
 171 5 76.27 34.92 74.3
 172 6 75.23 34.79 74.58
 173 7 76.95 33.56 74.59
 174 8 76.41 32.76 74.07
 175 9 77.95 33.46 74.16
 176 10 77.09 33.2 76.06
 177 92 77.85 33.73 76.63
 178 93 76.16 33.48 76.56
 179 94 77.14 31.69 76.31
 180 95 77.54 30.82 75.53
 181 91 76.79 31.31 77.52
 182 96 77.07 30.36 77.69
 183 97 76.46 31.92 78.25
 184 15 76.89 36.1 75.02
 185 16 76.48 36.35 76.17
 186 1 77.84 36.88 74.45
 187 2 78.13 36.77 73.49
 188 5 78.62 37.91 75.2
 189 6 78.2 37.91 76.21
 190 7 80.15 37.39 75.25
 191 8 80.66 37.35 74.3
 192 9 80.69 38.15 75.81
 193 10 80.38 36.02 75.98
 194 22 80.73 34.92 75.4
 195 23 81.01 34.81 74.36
 196 98 80.66 33.87 76.31
 197 25 80.83 32.88 76.16
 198 28 80.26 34.27 77.54
 199 99 79.91 33.65 78.73
 200 100 80.05 32.58 78.81
 201 101 79.34 34.44 79.81
 202 102 79.09 33.94 80.73
 203 103 79.01 35.77 79.61
 204 104 78.37 36.29 80.31
 205 105 79.3 36.33 78.38
 206 106 79.11 37.38 78.28
 207 30 80.03 35.7 77.37
 208 15 78.48 39.31 74.66
 209 16 79 40.28 75.24
 210 1 77.94 39.52 73.52
 211 2 77.64 38.72 72.98
 212 5 78.14 40.71 72.77
 213 6 79.21 40.94 72.78
 214 7 77.85 40.46 71.26
 215 8 78.56 39.69 70.96
 216 9 76.8 40.24 71.09
 217 20 78.28 41.99 70.17
 218 21 79.5 42.06 70.7
 219 15 77.4 41.91 73.37
 220 16 78.04 42.86 73.73
 221 1 76.05 41.86 73.43
 222 2 75.51 41.03 73.25
 223 5 75.29 43.01 73.79
 224 17 74.36 42.55 74.12
 225 18 75.69 43.59 74.62
 226 15 75.07 43.94 72.64
 227 16 75.99 44.27 71.86
 228 1 73.83 44.46 72.55
 229 2 73.12 44.15 73.2
 230 5 73.63 45.57 71.65
 231 6 74.32 45.57 70.81
 232 7 72.25 45.55 71.02
 233 8 72.24 46.4 70.35
 234 9 72.09 44.63 70.46
 235 107 71.23 45.53 71.92
 236 21 71.42 44.95 72.65
 237 15 73.66 46.88 72.44
 238 16 73.57 46.91 73.67
 239 1 73.84 47.98 71.7
 240 2 73.87 47.86 70.7
 241 5 73.83 49.31 72.26
 242 6 74.4 49.26 73.19
 243 7 74.59 50.27 71.4
 244 8 74.02 50.6 70.53
 245 9 74.75 51.16 72.01
 246 10 75.89 49.71 70.87
 247 11 76.59 49.05 71.66
 248 12 76.15 49.7 69.55
 249 13 76.96 49.16 69.31
 250 14 75.49 50.14 68.92
 251 15 72.42 49.72 72.55
 252 16 72.18 50.92 72.92
 253 1 71.38 48.93 72.45
 254 108 71.47 48.05 71.96
 255 109 70.53 49.03 72.98
ITEM: TIMESTEP
2
ITEM: NUMBER OF ATOMS
255
ITEM: BOX BOUNDS pp pp pp
-8.471 71.701
29.066 109.744
40.026 120.404
ITEM: ATOMS id type xu yu zu
 1 1 27.11 70.69 73.18
 2 2 27.36 71.5 73.73
 3 3 26.1 70.65 73.17
 4 4 27.36 70.8 72.2
 5 5 27.56 69.48 73.81
 6 6 28.64 69.61 73.89
 7 7 26.9 69.27 75.19
 8 8 25.84 69.1 75.04
 9 9 27.38 68.44 75.71
 10 10 27 70.49 76.1
 11 11 27.4 71.61 75.77
 12 12 26.32 70.36 77.27
 13 13 26.48 71.01 78.03
 14 14 25.87 69.46 77.37
 15 15 27.39 68.27 72.83
 16 16 26.97 68.39 71.71
 17 1 27.72 67.08 73.29
 18 2 28.18 67.16 74.19
 19 5 27.43 65.81 72.64
 20 17 27.71 65.84 71.59
 21 18 28.08 65.03 73.04
 22 15 26.01 65.35 72.68
 23 16 25.19 66.02 73.31
 24 1 25.65 64.25 72.13
 25 2 26.39 63.77 71.64
 26 5 24.29 63.82 71.76
 27 6 23.87 64.5 71.02
 28 7 24.33 62.46 71.06
 29 8 25.14 61.92 71.55
 30 9 23.33 62.06 71.23
 31 10 24.55 62.48 69.49
 32 11 24.06 63.38 68.85
 33 19 25.17 61.6 68.89
 34 15 23.45 63.74 73.04
 35 16 22.31 64.13 73.09
 36 1 24.04 63.21 74.17
 37 2 25.04 63.04 74.15
 38 5 23.45 63.07 75.47
 39 6 22.47 62.63 75.32
 40 7 24.33 62.11 76.3
 41 8 25.36 62.45 76.44
 42 9 23.83 62.04 77.26
 43 20 24.35 60.45 75.58
 44 21 23.59 59.73 76.41
 45 15 23.21 64.31 76.3
 46 16 22.5 64.23 77.28
 47 1 23.78 65.43 75.9
 48 2 24.31 65.33 75.05
 49 5 23.9 66.7 76.56
 50 6 24.54 67.34 75.96
 51 7 22.53 67.45 76.6
 52 8 22.05 67.38 75.62
 53 9 21.81 66.97 77.27
 54 10 22.69 68.97 76.93
 55 22 22.91 69.9 75.94
 56 23 23.03 69.62 74.91
 57 24 23.12 71.24 76.28
 58 25 23.48 71.94 75.53
 59 26 22.74 71.69 77.59
 60 27 22.8 72.76 77.76
 61 28 22.41 70.77 78.61
 62 29 22.15 71.17 79.58
 63 30 22.37 69.42 78.28
 64 31 22.04 68.74 79.05
 65 15 24.61 66.75 77.89
 66 16 25.23 67.75 78.18
 67 1 24.58 65.6 78.64
 68 2 23.99 64.89 78.24
 69 5 25.35 65.36 79.89
 70 6 25.28 66.29 80.44
 71 7 24.69 64.22 80.75
 72 32 25.32 64.14 81.64
 73 33 23.23 64.65 81.24
 74 34 23.37 65.55 81.84
 75 35 22.54 64.9 80.43
 76 36 22.88 63.89 81.93
 77 37 24.67 62.83 79.96
 78 38 23.79 62.26 80.25
 79 39 24.65 62.98 78.88
 80 22 25.84 61.95 80.41
 81 40 25.91 61.08 79.75
 82 41 26.77 62.51 80.3
 83 42 25.73 61.51 81.4
 84 15 26.82 65.11 79.63
 85 16 27.17 64.64 78.53
 86 1 27.74 65.45 80.53
 87 2 27.55 65.97 81.37
 88 5 29.14 65.34 80.12
 89 6 29.28 64.85 79.16
 90 7 29.86 66.73 80.14
 91 8 29.69 67.13 81.14
 92 9 30.94 66.58 80.1
 93 10 29.33 67.66 79.09
 94 21 28.3 67.38 78.9
 95 22 30.05 67.34 77.77
 96 40 29.91 66.34 77.38
 97 41 29.63 68.04 77.05
 98 42 31.12 67.55 77.82
 99 30 29.61 69.09 79.49
 100 13 29.26 69.3 80.51
 101 14 30.67 69.31 79.5
 102 43 29.04 69.68 78.77
 103 15 29.93 64.47 81.14
 104 16 29.37 64.19 82.25
 105 44 31.15 63.92 80.85
 106 45 31.68 63.82 79.5
 107 46 32.98 64.58 79.34
 108 47 34.09 64.13 80.33
 109 48 35.25 65.01 80.29
 110 49 36.34 64.61 79.19
 111 50 35.86 64.95 77.86
 112 51 36.84 63.36 79.64
 113 52 37.58 65.82 79.58
 114 53 37.56 67.11 78.94
 115 54 38.59 68.02 79.14
 116 55 39.65 67.66 79.98
 117 56 39.58 66.46 80.66
 118 57 38.55 65.53 80.47
 119 58 38.56 64.6 81.02
 120 59 40.46 66.22 81.25
 121 60 40.79 68.57 80.17
 122 61 41.42 68.23 80.98
 123 62 40.47 69.58 80.43
 124 63 41.42 68.48 79.28
 125 64 38.6 68.94 78.57
 126 65 36.65 67.46 78.48
 127 66 35.84 64.6 81
 128 67 34.31 63.08 80.14
 129 68 32.84 65.65 79.53
 130 69 33.35 64.41 78.33
 131 70 31.87 62.76 79.31
 132 71 31 64.13 78.7
 133 72 32.1 63.35 81.82
 134 73 31.75 63.32 82.85
 135 3 32.22 62.33 81.45
 136 74 33.48 64.08 81.77
 137 75 33.19 65.09 82.07
 138 76 34.46 63.66 82.78
 139 77 35 62.28 82.58
 140 78 35.08 61.58 83.93
 141 79 35 62.63 84.98
 142 80 34.5 62.21 85.85
 143 81 36.04 62.96 85.03
 144 82 36.05 61.09 84
 145 83 34.27 60.86 84.1
 146 84 35.97 62.3 82.08
 147 85 34.36 61.66 81.96
 148 86 34.16 63.69 84.24
 149 87 33.1 63.51 84.43
 150 88 34.47 65.11 84.86
 151 89 34.08 65.44 85.94
 152 1 35.32 65.87 84.12
 153 2 35.55 65.49 83.22
 154 5 36.06 67.1 84.4
 155 6 36.72 66.97 85.26
 156 7 36.97 67.52 83.17
 157 8 37.73 66.77 82.95
 158 9 36.46 67.57 82.21
 159 10 37.67 68.83 83.43
 160 90 37.47 70.09 82.88
 161 24 38.44 70.9 83.3
 162 25 38.54 71.91 82.94
 163 91 39.35 70.19 83.93
 164 29 40.23 70.53 84.29
 165 30 38.91 68.89 84.03
 166 31 39.39 68.03 84.48
 167 15 35.08 68.15 84.8
 168 16 34.15 68.53 84.09
 169 1 35.51 68.88 85.87
 170 2 36.43 68.72 86.25
 171 5 34.63 69.73 86.65
 172 6 33.73 69.21 86.95
 173 7 35.27 70 87.96
 174 8 35.4 69.06 88.51
 175 9 36.29 70.33 87.74
 176 10 34.44 71.05 88.73
 177 92 34.48 72.01 88.22
 178 93 33.44 70.64 88.87
 179 94 34.99 71.24 90.1
 180 95 35.76 70.46 90.69
 181 91 34.7 72.39 90.71
 182 96 35.19 72.56 91.58
 183 97 34.28 73.04 90.07
 184 15 34.25 70.91 85.8
 185 16 33.16 71.47 85.95
 186 1 35.19 71.37 84.92
 187 2 36.01 70.79 84.83
 188 5 35.06 72.57 84.04
 189 6 34.18 73.09 84.42
 190 7 36.19 73.48 84.25
 191 8 37.06 72.98 83.83
 192 9 36.01 74.43 83.75
 193 10 36.45 73.81 85.73
 194 22 36.01 74.9 86.35
 195 23 35.32 75.61 85.93
 196 98 36.49 74.86 87.64
 197 25 36.19 75.57 88.29
 198 28 37.38 73.86 87.86
 199 99 38.18 73.54 89.01
 200 100 38.22 74.18 89.88
 201 101 38.94 72.33 88.93
 202 102 39.65 72.16 89.73
 203 103 38.89 71.5 87.81
 204 104 39.53 70.65 87.63
 205 105 38.03 71.89 86.74
 206 106 37.98 71.22 85.89
 207 30 37.33 73.14 86.68
 208 15 34.73 72.29 82.54
 209 16 34.82 73.19 81.7
 210 1 34.36 71.06 82.18
 211 2 34.24 70.38 82.91
 212 5 34.25 70.48 80.78
 213 6 35.18 70.71 80.25
 214 7 34.15 68.96 80.93
 215 8 34.97 68.51 81.49
 216 9 33.19 68.93 81.44
 217 20 34.02 68.19 79.3
 218 21 34.65 67.08 79.7
 219 15 32.99 71.05 80.08
 220 16 31.98 71.21 80.71
 221 1 32.99 71.21 78.77
 222 2 33.71 70.82 78.17
 223 5 31.85 71.96 78.14
 224 17 31.5 71.43 77.25
 225 18 31.06 71.91 78.9
 226 15 32.28 73.36 77.79
 227 16 33.4 73.6 77.23
 228 1 31.39 74.31 78.04
 229 2 30.59 74.02 78.57
 230 5 31.56 75.77 77.91
 231 6 30.57 76.22 77.89
 232 7 32.4 76.37 79.1
 233 8 33.4 75.94 79.16
 234 9 32.5 77.45 79.03
 235 107 31.81 76.14 80.36
 236 21 31.71 75.21 80.58
 237 15 32.14 76.26 76.61
 238 16 33.21 76.92 76.56
 239 1 31.56 75.87 75.47
 240 2 30.73 75.3 75.52
 241 5 32.21 76.18 74.19
 242 6 33.29 75.99 74.23
 243 7 31.6 75.34 73.13
 244 8 30.51 75.38 73.19
 245 9 31.75 75.66 72.1
 246 10 32.08 73.9 73.32
 247 11 33.25 73.58 73.01
 248 12 31.31 72.97 73.81
 249 13 31.59 72.03 73.6
 250 14 30.4 73.17 74.19
 251 15 32.11 77.61 73.74
 252 16 31.17 78.31 74.15
 253 1 33.09 78.12 73.01
 254 108 33.9 77.57 72.72
 255 109 32.99 79.08 72.72
ITEM: TIMESTEP
3
ITEM: NUMBER OF ATOMS
255
ITEM: BOX BOUNDS pp pp pp
-3.041 77.131
-36.449 44.229
37.521 117.899
ITEM: ATOMS id type xu yu zu
 1 1 30.5 6.21 71.1
 2 2 30.75 6.54 70.18
 3 3 30.38 6.99 71.73
 4 4 29.58 5.82 70.97
 5 5 31.41 5.12 71.55
 6 6 31.31 4.26 70.88
 7 7 32.86 5.64 71.61
 8 8 33.45 4.8 71.97
 9 9 33.09 5.8 70.56
 10 10 33.03 6.89 72.43
 11 11 32.13 7.62 72.71
 12 12 34.23 7.27 72.81
 13 13 34.19 8.18 73.25
 14 14 35.05 6.77 72.49
 15 15 30.93 4.52 72.86
 16 16 30.85 3.32 72.84
 17 1 30.7 5.27 73.99
 18 2 30.55 6.27 73.9
 19 5 30.32 4.72 75.2
 20 17 31.12 4.09 75.58
 21 18 30.28 5.52 75.94
 22 15 28.97 4.03 75.11
 23 16 28.88 2.94 75.71
 24 1 28.02 4.49 74.22
 25 2 28.26 5.34 73.73
 26 5 26.81 3.78 73.76
 27 6 26.06 3.66 74.55
 28 7 26.15 4.6 72.59
 29 8 25.4 3.98 72.1
 30 9 25.59 5.43 73.02
 31 10 27.07 5.04 71.48
 32 11 28.27 4.71 71.47
 33 19 26.55 5.72 70.52
 34 15 27.05 2.34 73.35
 35 16 26.3 1.42 73.69
 36 1 28.17 2.17 72.58
 37 2 28.8 2.96 72.57
 38 5 28.68 0.87 72.1
 39 6 27.79 0.28 71.91
 40 7 29.45 1.09 70.74
 41 8 30.39 1.48 71.11
 42 9 29.69 0.19 70.17
 43 20 28.49 2.23 69.68
 44 21 28.17 3.07 70.68
 45 15 29.52 0.15 73.08
 46 16 30.21 -0.78 72.66
 47 1 29.67 0.63 74.33
 48 2 29.16 1.46 74.59
 49 5 30.7 0.18 75.32
 50 6 30.56 0.89 76.14
 51 7 30.3 -1.19 75.85
 52 8 30.44 -1.96 75.1
 53 9 30.92 -1.45 76.71
 54 10 28.9 -1.32 76.37
 55 22 27.8 -1.97 75.64
 56 23 27.98 -2.35 74.65
 57 24 26.54 -2.22 76.3
 58 25 25.78 -2.73 75.73
 59 26 26.33 -1.65 77.54
 60 27 25.4 -1.79 78.08
 61 28 27.31 -0.99 78.23
 62 29 27.14 -0.59 79.22
 63 30 28.59 -0.87 77.68
 64 31 29.37 -0.47 78.31
 65 15 32.19 0.33 74.84
 66 16 33.09 -0.29 75.41
 67 1 32.46 1.2 73.86
 68 2 31.66 1.76 73.61
 69 5 33.87 1.53 73.49
 70 6 34.43 0.6 73.63
 71 7 34.03 1.85 71.97
 72 32 33.37 2.7 71.77
 73 33 35.41 2.39 71.56
 74 34 35.29 2.36 70.47
 75 35 35.56 3.42 71.87
 76 36 36.16 1.72 71.97
 77 37 33.56 0.68 71.04
 78 38 34.25 -0.15 70.9
 79 39 32.71 0.22 71.53
 80 22 33.02 1.27 69.72
 81 40 32.05 0.84 69.49
 82 41 32.77 2.33 69.82
 83 42 33.79 1.1 68.96
 84 15 34.45 2.75 74.34
 85 16 33.83 3.79 74.38
 86 1 35.7 2.6 74.92
 87 2 36.13 1.71 74.73
 88 5 36.35 3.71 75.73
 89 6 35.46 4.24 76.08
 90 7 36.98 3.07 76.93
 91 8 37.85 2.51 76.6
 92 9 37.31 3.84 77.63
 93 10 36.12 2.12 77.78
 94 21 35.89 1.19 77.26
 95 22 34.8 2.69 78.24
 96 40 34.94 3.73 78.52
 97 41 34.09 2.49 77.44
 98 42 34.34 2.11 79.04
 99 30 36.94 1.66 78.99
 100 13 37.32 2.51 79.55
 101 14 36.37 1 79.63
 102 43 37.78 1.1 78.57
 103 15 37.26 4.61 74.87
 104 16 38 4.09 74.03
 105 44 37.24 5.94 75.09
 106 45 36.9 6.54 76.43
 107 46 38.18 6.76 77.15
 108 47 39.03 7.71 76.4
 109 48 40.19 8.02 77.16
 110 49 40.19 9.33 78.04
 111 50 38.82 9.7 78.47
 112 51 41.07 10.09 77.18
 113 52 41.16 8.86 79.43
 114 53 42.11 7.84 79.35
 115 54 42.9 7.52 80.49
 116 55 42.69 8.14 81.73
 117 56 41.66 9.14 81.79
 118 57 40.89 9.43 80.68
 119 58 40.06 10.12 80.78
 120 59 41.47 9.65 82.72
 121 60 43.44 7.7 83.03
 122 61 43.13 6.67 83.16
 123 62 43.35 8.23 83.98
 124 63 44.51 7.71 82.81
 125 64 43.61 6.7 80.44
 126 65 42.15 7.32 78.4
 127 66 40.85 8.31 76.46
 128 67 38.53 8.67 76.27
 129 68 38.71 5.83 77.37
 130 69 37.84 7.13 78.11
 131 70 36.53 7.56 76.28
 132 71 36.01 6.15 76.92
 133 72 38.04 6.94 74.28
 134 73 38.17 6.48 73.3
 135 3 37.52 7.9 74.25
 136 74 39.35 7.16 75.01
 137 75 39.75 6.15 75.13
 138 76 40.42 7.9 74.22
 139 77 40.22 9.35 73.98
 140 78 41.35 9.81 73.05
 141 79 41.97 8.46 72.49
 142 80 42.12 8.41 71.41
 143 81 43 8.36 72.81
 144 82 42.2 10.3 73.52
 145 83 41.03 10.51 72.28
 146 84 40.03 9.99 74.83
 147 85 39.29 9.42 73.41
 148 86 41.08 7.32 72.99
 149 87 40.29 7.08 72.28
 150 88 41.9 6.06 73.49
 151 89 41.7 5.04 72.94
 152 1 42.62 6.25 74.6
 153 2 42.52 7.18 74.96
 154 5 43.5 5.36 75.31
 155 6 44.04 4.74 74.6
 156 7 44.56 6.17 76.05
 157 8 44.88 6.99 75.42
 158 9 44.11 6.58 76.95
 159 10 45.79 5.5 76.46
 160 90 45.87 4.57 77.5
 161 24 47.15 4.1 77.47
 162 25 47.59 3.42 78.19
 163 91 47.81 4.62 76.37
 164 29 48.69 4.28 75.99
 165 30 46.96 5.49 75.78
 166 31 47.07 6.03 74.85
 167 15 42.71 4.34 76.18
 168 16 42.01 4.76 77.07
 169 1 42.83 3.02 75.97
 170 2 43.45 2.72 75.23
 171 5 41.96 2.06 76.59
 172 6 40.95 2.45 76.47
 173 7 42.1 0.67 76
 174 8 43.15 0.39 75.93
 175 9 41.51 -0.09 76.52
 176 10 41.6 0.53 74.58
 177 92 42.15 1.23 73.95
 178 93 41.9 -0.42 74.16
 179 94 40.07 0.82 74.45
 180 95 39.3 0.42 75.35
 181 91 39.6 1.39 73.36
 182 96 38.64 1.63 73.17
 183 97 40.21 1.55 72.57
 184 15 42.06 2.04 78.12
 185 16 41.18 1.5 78.71
 186 1 43.16 2.55 78.7
 187 2 43.71 2.97 77.96
 188 5 43.55 2.32 80.14
 189 6 43.54 1.26 80.39
 190 7 45.04 2.77 80.18
 191 8 45.55 2.18 79.41
 192 9 45.16 3.81 79.88
 193 10 45.74 2.62 81.47
 194 22 46.12 3.7 82.18
 195 23 45.96 4.69 81.77
 196 98 46.7 3.34 83.36
 197 25 46.78 3.99 84.13
 198 28 46.67 1.97 83.53
 199 99 47.09 1.13 84.62
 200 100 47.37 1.55 85.57
 201 101 46.99 -0.24 84.43
 202 102 47.29 -0.79 85.31
 203 103 46.52 -0.79 83.23
 204 104 46.55 -1.85 83.03
 205 105 46.07 0.09 82.19
 206 106 45.78 -0.34 81.24
 207 30 46.07 1.48 82.31
 208 15 42.6 3.03 81.21
 209 16 42.93 3.07 82.36
 210 1 41.54 3.71 80.76
 211 2 41.31 3.68 79.78
 212 5 40.54 4.39 81.59
 213 6 41 5.2 82.16
 214 7 39.56 5.16 80.64
 215 8 40.09 5.75 79.9
 216 9 38.91 4.49 80.08
 217 20 38.45 6.28 81.58
 218 21 39.39 7.17 81.92
 219 15 39.81 3.46 82.51
 220 16 38.82 2.78 82.06
 221 1 40.21 3.4 83.77
 222 2 41.03 3.93 84.07
 223 5 39.79 2.22 84.68
 224 17 39.9 2.56 85.71
 225 18 38.79 1.86 84.43
 226 15 40.63 0.9 84.66
 227 16 40.05 -0.16 84.76
 228 1 41.89 0.85 84.26
 229 2 42.33 1.69 83.94
 230 5 42.74 -0.35 84.04
 231 6 43.69 -0.02 83.61
 232 7 43.09 -1.08 85.44
 233 8 42.12 -1.44 85.77
 234 9 43.69 -1.97 85.28
 235 107 43.7 -0.14 86.36
 236 21 44.6 -0.46 86.46
 237 15 42.25 -1.28 82.92
 238 16 42.7 -2.41 82.65
 239 1 41.43 -0.79 82.04
 240 2 41.18 0.18 82.19
 241 5 40.78 -1.38 80.88
 242 6 40.4 -2.37 81.14
 243 7 39.39 -0.64 80.71
 244 8 39.56 0.42 80.51
 245 9 38.91 -1.17 79.9
 246 10 38.49 -0.79 82
 247 11 38.4 -1.81 82.63
 248 12 37.8 0.2 82.39
 249 13 37.21 0.05 83.2
 250 14 38 1.08 81.93
 251 15 41.57 -1.47 79.51
 252 16 41.08 -1.93 78.51
 253 1 42.81 -1.16 79.44
 254 108 43.24 -0.69 80.21
 255 109 43.23 -1.21 78.52
ITEM: TIMESTEP
4
ITEM: NUMBER OF ATOMS
255
ITEM: BOX BOUNDS pp pp pp
34.839 115.011
29.431 110.109
1.846 82.224
ITEM: ATOMS id type xu yu zu
 1 1 71.39 68.2 36.59
 2 2 70.48 68.47 36.24
 3 3 72.06 68.37 35.86
 4 4 71.75 68.83 37.29
 5 5 71.36 66.79 37.13
 6 6 70.52 66.68 37.82
 7 7 71.26 65.59 36.05
 8 8 72.11 65.68 35.38
 9 9 71.44 64.63 36.53
 10 10 69.98 65.6 35.19
 11 11 69.15 66.5 35.25
 12 12 69.91 64.61 34.36
 13 13 69.02 64.5 33.89
 14 14 70.63 63.9 34.41
 15 15 72.63 66.62 38.02
 16 16 73.59 67.35 37.75
 17 1 72.58 65.8 39.04
 18 2 71.77 65.24 39.24
 19 5 73.74 65.56 39.84
 20 17 74.62 65.5 39.2
 21 18 73.82 66.4 40.53
 22 15 73.83 64.26 40.66
 23 16 74.48 64.27 41.72
 24 1 73.19 63.2 40.21
 25 2 72.71 63.19 39.32
 26 5 72.93 61.96 40.96
 27 6 72.68 62.15 42
 28 7 71.81 61.12 40.39
 29 8 72.02 60.95 39.34
 30 9 71.81 60.13 40.85
 31 10 70.45 61.71 40.55
 32 11 69.55 61.24 39.81
 33 19 70.19 62.47 41.49
 34 15 74.2 61.03 41
 35 16 74.39 60.23 41.93
 36 1 75.07 61.05 39.95
 37 2 74.87 61.63 39.14
 38 5 76.3 60.28 39.9
 39 6 76.08 59.33 40.4
 40 7 76.57 59.93 38.42
 41 8 77.07 60.84 38.09
 42 9 77.31 59.13 38.44
 43 20 75.11 59.37 37.43
 44 21 74.33 60.46 37.48
 45 15 77.52 60.91 40.54
 46 16 78.24 60.18 41.18
 47 1 77.76 62.22 40.39
 48 2 77.28 62.7 39.65
 49 5 78.99 62.85 40.69
 50 6 79.59 62.26 41.38
 51 7 79.73 62.98 39.3
 52 8 79.89 61.94 39
 53 9 79.19 63.53 38.54
 54 10 81.12 63.57 39.38
 55 22 82.11 62.75 39.97
 56 23 81.8 61.77 40.3
 57 24 83.45 63.08 40.01
 58 25 84.18 62.4 40.43
 59 26 83.87 64.32 39.44
 60 27 84.9 64.64 39.5
 61 28 82.86 65.22 38.86
 62 29 83.17 66.11 38.33
 63 30 81.48 64.86 38.89
 64 31 80.64 65.44 38.53
 65 15 78.71 64.18 41.45
 66 16 77.55 64.59 41.6
 67 1 79.76 64.78 42
 68 2 80.61 64.23 42.03
 69 5 79.74 66.03 42.75
 70 6 78.86 65.96 43.38
 71 7 81.07 66.26 43.48
 72 32 81.22 65.28 43.94
 73 33 82.18 66.56 42.54
 74 34 82.23 65.82 41.74
 75 35 82.07 67.56 42.11
 76 36 83.08 66.53 43.16
 77 37 81.07 67.17 44.75
 78 38 82.05 67.1 45.2
 79 39 80.87 68.21 44.49
 80 22 80.17 66.79 45.83
 81 40 80.2 67.45 46.7
 82 41 79.14 66.81 45.49
 83 42 80.47 65.79 46.16
 84 15 79.31 67.18 41.75
 85 16 79.65 67.16 40.59
 86 1 78.82 68.27 42.32
 87 2 78.7 68.34 43.32
 88 5 78.51 69.51 41.57
 89 6 78.79 69.27 40.55
 90 7 77.02 69.77 41.55
 91 8 76.51 69.65 42.5
 92 9 76.89 70.79 41.19
 93 10 76.2 68.82 40.66
 94 21 76.37 67.78 40.95
 95 22 76.38 69 39.13
 96 40 75.83 69.9 38.87
 97 41 77.42 69.06 38.81
 98 42 75.91 68.11 38.69
 99 30 74.73 69.1 40.96
 100 13 74.09 68.53 40.28
 101 14 74.53 68.9 42.01
 102 43 74.53 70.17 40.89
 103 15 79.4 70.69 42.11
 104 16 79.7 70.68 43.31
 105 44 79.75 71.7 41.28
 106 45 79.36 71.87 39.9
 107 46 78.4 73.05 39.64
 108 47 78.65 74.32 40.55
 109 48 77.48 75.13 40.7
 110 49 76.57 75.69 39.41
 111 50 75.77 74.55 39.1
 112 51 77.45 76.44 38.54
 113 52 75.49 76.83 40.28
 114 53 75.65 78.21 40.13
 115 54 74.58 79.04 40.44
 116 55 73.38 78.56 41.08
 117 56 73.27 77.19 41.26
 118 57 74.29 76.32 40.92
 119 58 74 75.29 40.99
 120 59 72.37 76.81 41.72
 121 60 72.19 79.41 41.55
 122 61 72.34 80.41 41.14
 123 62 72.26 79.5 42.64
 124 63 71.21 79 41.29
 125 64 74.64 80.1 40.24
 126 65 76.55 78.6 39.67
 127 66 76.73 74.47 40.87
 128 67 79.44 74.87 40.04
 129 68 77.37 72.76 39.85
 130 69 78.5 73.35 38.6
 131 70 80.21 72.19 39.29
 132 71 79.07 70.94 39.41
 133 72 80.37 72.94 41.74
 134 73 81.01 72.77 42.61
 135 3 81.17 73.35 41.11
 136 74 79.22 73.95 41.96
 137 75 78.42 73.58 42.6
 138 76 79.74 75.16 42.67
 139 77 80.86 75.94 42.09
 140 78 81.16 77.01 43.14
 141 79 80.98 76.23 44.46