ITEM: TIMESTEP
0
ITEM: NUMBER OF ATOMS
255
ITEM: BOX BOUNDS pp pp pp
-41.906 38.266
11.9905 92.6685
38.3555 118.733
ITEM: ATOMS id type xu yu zu
 1 1 -1.674 48.889 80.614
 2 2 -2.489 49.24 81.095
 3 3 -1.731 47.883 80.685
 4 4 -1.722 49.102 79.628
 5 5 -0.373 49.376 81.139
 6 6 0.385 49.059 80.422
 7 7 -0.332 50.876 81.416
 8 8 -0.859 50.98 82.365
 9 9 0.724 51.122 81.527
 10 10 -0.924 51.781 80.424
 11 11 -0.672 51.678 79.204
 12 12 -1.757 52.695 80.835
 13 13 -2.291 53.224 80.161
 14 14 -1.869 52.774 81.836
 15 15 -0.129 48.631 82.452
 16 16 -1.11 48.094 83.001
 17 1 1.072 48.518 83.089
 18 2 1.901 48.806 82.589
 19 5 1.259 48.074 84.509
 20 17 2.34 48.102 84.644
 21 18 0.739 48.696 85.239
 22 15 0.843 46.59 84.642
 23 16 1.427 45.686 84.056
 24 1 -0.208 46.325 85.32
 25 2 -0.727 47.137 85.623
 26 5 -0.681 45.004 85.573
 27 6 -0.038 44.335 86.146
 28 7 -1.871 45.167 86.473
 29 8 -2.21 44.209 86.868
 30 9 -1.632 45.749 87.363
 31 10 -2.975 45.958 85.743
 32 11 -3.659 45.44 84.84
 33 19 -3.144 47.175 86.017
 34 15 -1.075 44.135 84.382
 35 16 -0.988 42.933 84.371
 36 1 -1.47 44.791 83.24
 37 2 -1.568 45.796 83.27
 38 5 -1.694 44.091 81.983
 39 6 -0.906 43.343 81.903
 40 7 -3.094 43.49 82.097
 41 8 -3.137 42.725 82.872
 42 9 -3.815 44.304 82.17
 43 20 -3.416 42.612 80.521
 44 21 -4.73 42.569 80.756
 45 15 -1.522 45.016 80.733
 46 16 -1.989 46.141 80.744
 47 1 -0.741 44.588 79.717
 48 2 -0.312 43.687 79.871
 49 5 -0.043 45.386 78.654
 50 6 0.507 44.699 78.01
 51 7 -1.18 45.957 77.738
 52 8 -1.779 46.702 78.263
 53 9 -0.613 46.419 76.93
 54 10 -2.126 44.942 77.093
 55 22 -3.488 44.744 77.538
 56 23 -3.833 45.327 78.379
 57 24 -4.234 43.809 76.95
 58 25 -5.231 43.605 77.313
 59 26 -3.799 43.014 75.901
 60 27 -4.35 42.22 75.42
 61 28 -2.48 43.253 75.43
 62 29 -2.056 42.639 74.649
 63 30 -1.593 44.168 75.989
 64 31 -0.558 44.239 75.687
 65 15 1.006 46.445 79.123
 66 16 1.078 46.844 80.275
 67 1 1.834 46.813 78.104
 68 2 1.584 46.502 77.177
 69 5 2.924 47.702 78.148
 70 6 3.129 47.943 79.191
 71 7 4.164 47.044 77.531
 72 32 3.991 46.675 76.52
 73 33 5.333 48.065 77.36
 74 34 5.525 48.687 78.234
 75 35 6.293 47.596 77.144
 76 36 5.067 48.709 76.522
 77 37 4.68 45.936 78.427
 78 38 5.698 45.658 78.151
 79 39 4.747 46.264 79.464
 80 22 3.893 44.6 78.403
 81 40 3.107 44.727 79.148
 82 41 3.427 44.498 77.423
 83 42 4.55 43.802 78.749
 84 15 2.532 49.01 77.434
 85 16 1.995 48.938 76.37
 86 1 2.715 50.192 78.021
 87 2 3.071 50.181 78.966
 88 5 2.353 51.52 77.414
 89 6 1.324 51.413 77.069
 90 7 2.473 52.624 78.522
 91 8 1.818 52.337 79.344
 92 9 3.46 52.638 78.984
 93 10 2.154 54.151 78.186
 94 21 2.741 54.37 77.294
 95 22 2.533 55.295 79.128
 96 40 2.29 56.234 78.629
 97 41 2.109 55.263 80.132
 98 42 3.613 55.217 79.254
 99 30 0.725 54.387 77.786
 100 13 0.086 54.379 78.67
 101 14 0.752 55.347 77.27
 102 43 0.372 53.634 77.081
 103 15 3.383 51.866 76.309
 104 16 4.579 51.727 76.481
 105 44 2.979 52.264 75.112
 106 45 1.624 52.671 74.66
 107 46 1.616 54.113 74.247
 108 47 2.697 54.467 73.182
 109 48 2.632 55.902 72.944
 110 49 3.383 56.545 71.666
 111 50 3.058 55.693 70.596
 112 51 4.67 56.931 72.095
 113 52 2.439 57.998 71.338
 114 53 1.279 58.072 70.545
 115 54 0.498 59.265 70.409
 116 55 0.92 60.394 71.097
 117 56 2.139 60.392 71.817
 118 57 2.833 59.166 72.038
 119 58 3.776 59.107 72.561
 120 59 2.544 61.294 72.252
 121 60 0.234 61.687 70.902
 122 61 0.653 62.295 70.1
 123 62 0.321 62.262 71.823
 124 63 -0.8 61.488 70.619
 125 64 -0.396 59.27 69.804
 126 65 0.887 57.228 69.995
 127 66 3.309 56.306 73.575
 128 67 2.283 54.008 72.284
 129 68 1.699 54.912 74.984
 130 69 0.687 54.264 73.698
 131 70 1.443 52.069 73.77
 132 71 0.833 52.365 75.346
 133 72 3.896 52.441 73.99
 134 73 4.856 51.979 74.222
 135 3 3.476 52.002 73.085
 136 74 4.145 53.88 73.593
 137 75 4.376 54.407 74.518
 138 76 5.231 54.028 72.541
 139 77 5.178 53.227 71.282
 140 78 6.456 53.509 70.616
 141 79 7.423 54.089 71.645
 142 80 8.298 53.456 71.79
 143 81 7.613 55.155 71.514
 144 82 6.322 54.124 69.726
 145 83 6.775 52.516 70.301
 146 84 4.274 53.441 70.712
 147 85 5.159 52.156 71.484
 148 86 6.648 53.82 72.988
 149 87 6.769 52.81 73.379
 150 88 7.089 54.82 74.107
 151 89 7.885 54.515 75.028
 152 1 6.577 56.088 74.006
 153 2 6.14 56.184 73.1
 154 5 6.592 57.159 75.009
 155 6 7.116 56.745 75.87
 156 7 7.421 58.338 74.525
 157 8 8.464 58.046 74.399
 158 9 7.053 58.797 73.608
 159 10 7.534 59.526 75.422
 160 90 6.753 60.684 75.266
 161 24 6.924 61.457 76.396
 162 25 6.528 62.439 76.612
 163 91 7.857 60.811 77.139
 164 29 7.867 61.073 78.114
 165 30 8.196 59.66 76.6
 166 31 8.789 58.905 77.096
 167 15 5.209 57.468 75.652
 168 16 4.186 57.044 75.129
 169 1 5.215 58.292 76.743
 170 2 6.112 58.704 76.957
 171 5 4.043 58.474 77.555
 172 6 3.715 57.452 77.742
 173 7 4.361 59.163 78.904
 174 8 5.239 58.662 79.312
 175 9 4.64 60.187 78.653
 176 10 3.285 59.168 80.045
 177 92 2.783 58.201 80.088
 178 93 3.82 59.398 80.966
 179 94 2.166 60.124 79.981
 180 95 2.13 61.042 79.182
 181 91 1.214 59.923 80.803
 182 96 0.577 60.704 80.878
 183 97 1.29 59.166 81.466
 184 15 2.934 59.215 76.773
 185 16 3.111 60.301 76.176
 186 1 1.725 58.675 76.768
 187 2 1.73 57.719 77.093
 188 5 0.483 59.204 76.128
 189 6 0.402 60.291 76.118
 190 7 0.411 58.626 74.699
 191 8 1.287 58.992 74.164
 192 9 0.457 57.537 74.726
 193 10 -0.74 58.932 73.883
 194 22 -1.282 60.096 73.689
 195 23 -0.832 61.008 74.053
 196 98 -2.354 60.07 72.834
 197 25 -2.958 60.854 72.633
 198 28 -2.455 58.786 72.329
 199 99 -3.31 58.16 71.391
 200 100 -4.095 58.763 70.96
 201 101 -3.32 56.785 71.17
 202 102 -4.134 56.361 70.602
 203 103 -2.413 55.994 71.95
 204 104 -2.431 54.915 71.9
 205 105 -1.401 56.63 72.719
 206 106 -0.601 56.058 73.164
 207 30 -1.488 58.01 73.006
 208 15 -0.822 58.818 76.91
 209 16 -0.938 57.684 77.403
 210 1 -1.777 59.674 77.089
 211 2 -1.562 60.586 76.711
 212 5 -3.074 59.462 77.643
 213 6 -3.028 58.487 78.128
 214 7 -3.374 60.507 78.733
 215 8 -3.459 61.473 78.235
 216 9 -4.343 60.21 79.134
 217 20 -2.129 60.769 79.977
 218 21 -1.223 61.331 79.173
 219 15 -4.174 59.4 76.577
 220 16 -4.143 60.081 75.571
 221 1 -5.24 58.688 76.903
 222 2 -5.112 58.044 77.67
 223 5 -6.548 58.683 76.219
 224 17 -6.846 59.716 76.045
 225 18 -6.306 58.181 75.282
 226 15 -7.704 58.046 76.961
 227 16 -7.669 57.745 78.144
 228 1 -8.814 57.86 76.252
 229 2 -8.769 58.052 75.261
 230 5 -10.037 57.178 76.77
 231 6 -10.472 57.797 77.555
 232 7 -11.157 57.156 75.747
 233 8 -10.877 56.59 74.858
 234 9 -11.997 56.685 76.258
 235 107 -11.548 58.44 75.278
 236 21 -12.429 58.624 75.612
 237 15 -9.826 55.701 77.172
 238 16 -10.696 55.157 77.888
 239 1 -8.699 55.089 76.693
 240 2 -8.017 55.671 76.229
 241 5 -8.339 53.751 77.202
 242 6 -8.756 53.625 78.201
 243 7 -8.871 52.633 76.312
 244 8 -8.791 52.841 75.245
 245 9 -8.266 51.741 76.475
 246 10 -10.299 52.308 76.564
 247 11 -11.167 52.715 75.792
 248 12 -10.573 51.478 77.533
 249 13 -11.542 51.292 77.75
 250 14 -9.866 51.006 78.079
 251 15 -6.792 53.7 77.416
 252 16 -6.115 52.729 77.149
 253 1 -6.187 54.802 77.851
 254 108 -6.677 55.652 78.088
 255 109 -5.179 54.865 77.828
ITEM: TIMESTEP
1
ITEM: NUMBER OF ATOMS
255
ITEM: BOX BOUNDS pp pp pp
1.469 81.641
20.166 100.844
-19.609 60.769
ITEM: ATOMS id type xu yu zu
 1 1 40.21 57.79 24.05
 2 2 40.92 57.34 23.49
 3 3 40.64 57.95 24.96
 4 4 40.01 58.71 23.68
 5 5 38.99 57.04 24.07
 6 6 38.24 57.41 24.77
 7 7 38.41 56.86 22.61
 8 8 39.25 56.69 21.92
 9 9 37.82 55.95 22.65
 10 10 37.5 58 22.15
 11 11 37.69 59.2 22.48
 12 12 36.45 57.72 21.4
 13 13 35.83 58.51 21.25
 14 14 36.17 56.8 21.08
 15 15 39.37 55.68 24.61
 16 16 40.33 55.11 24.04
 17 1 38.64 55.29 25.64
 18 2 37.94 55.91 26
 19 5 38.93 54.03 26.35
 20 17 38.02 53.83 26.91
 21 18 39.09 53.25 25.6
 22 15 40.16 54.02 27.29
 23 16 41.1 54.79 27.15
 24 1 40.12 53.15 28.29
 25 2 39.35 52.52 28.43
 26 5 41.37 52.61 28.87
 27 6 42.02 53.46 29.1
 28 7 41.09 51.85 30.18
 29 8 42.02 51.6 30.69
 30 9 40.41 52.4 30.83
 31 10 40.32 50.53 29.97
 32 11 39.81 50.42 28.87
 33 19 40.2 49.65 30.87
 34 15 42.4 51.91 27.98
 35 16 43.53 51.59 28.31
 36 1 41.96 51.64 26.7
 37 2 40.98 51.73 26.45
 38 5 42.98 51.38 25.62
 39 6 43.76 50.71 25.97
 40 7 42.34 50.94 24.35
 41 8 43.06 50.9 23.53
 42 9 41.95 49.94 24.55
 43 20 40.96 52.01 23.93
 44 21 40.39 51.27 22.97
 45 15 43.8 52.57 25.23
 46 16 44.77 52.44 24.53
 47 1 43.27 53.78 25.48
 48 2 42.3 53.84 25.74
 49 5 44.02 55.05 25.22
 50 6 43.3 55.82 25.47
 51 7 45.15 55.23 26.34
 52 8 45.8 54.36 26.31
 53 9 45.67 56.13 26.01
 54 10 44.66 55.46 27.79
 55 22 44.72 54.4 28.73
 56 23 45.21 53.48 28.45
 57 24 44.35 54.72 30.05
 58 25 44.49 53.97 30.82
 59 26 43.83 56 30.31
 60 27 43.55 56.21 31.33
 61 28 43.67 57.01 29.3
 62 29 43.28 58 29.48
 63 30 44.15 56.71 28.06
 64 31 44.11 57.46 27.29
 65 15 44.37 55.28 23.71
 66 16 45.18 56.17 23.41
 67 1 43.72 54.66 22.75
 68 2 43.3 53.79 23.07
 69 5 43.54 55.18 21.4
 70 6 44.57 55.38 21.11
 71 7 42.87 54.16 20.49
 72 32 43.1 54.51 19.48
 73 33 43.5 52.7 20.68
 74 34 43.19 52.18 19.78
 75 35 44.58 52.66 20.79
 76 36 43 52.14 21.48
 77 37 41.35 54.1 20.52
 78 38 41.08 53.56 21.43
 79 39 40.82 55.05 20.52
 80 22 40.79 53.3 19.32
 81 40 41.31 52.37 19.07
 82 41 39.71 53.14 19.34
 83 42 40.82 54.03 18.51
 84 15 42.87 56.57 21.39
 85 16 42.11 57.04 22.23
 86 1 43.25 57.34 20.31
 87 2 43.95 56.92 19.72
 88 5 42.61 58.57 19.9
 89 6 42.8 59.36 20.63
 90 7 43.32 59.17 18.68
 91 8 43.82 58.4 18.09
 92 9 42.46 59.5 18.1
 93 10 44.35 60.28 18.99
 94 21 43.9 61.12 19.53
 95 22 44.81 60.84 17.65
 96 40 45.53 60.23 17.11
 97 41 43.94 60.88 17
 98 42 45.16 61.87 17.74
 99 30 45.58 59.8 19.82
 100 13 46.17 60.71 19.94
 101 14 45.19 59.42 20.77
 102 43 46.01 58.98 19.25
 103 15 41.16 58.31 19.66
 104 16 40.76 57.27 19.16
 105 44 40.27 59.29 19.98
 106 45 40.56 60.62 20.43
 107 46 40.64 61.56 19.28
 108 47 39.22 61.62 18.66
 109 48 39.22 62.46 17.42
 110 49 39.19 64.1 17.57
 111 50 40.55 64.33 17.87
 112 51 38.08 64.41 18.47
 113 52 38.68 64.84 16.01
 114 53 39.65 64.87 14.97
 115 54 39.32 65.31 13.69
 116 55 38.04 65.84 13.47
 117 56 37.11 65.76 14.43
 118 57 37.37 65.18 15.68
 119 58 36.52 65.14 16.35
 120 59 36.11 66.09 14.19
 121 60 37.73 66.52 12.13
 122 61 37.49 65.73 11.42
 123 62 38.59 67.14 11.86
 124 63 36.82 67.12 12.15
 125 64 39.98 65.27 12.84
 126 65 40.66 64.51 15.12
 127 66 40.19 62.47 17.12
 128 67 38.44 61.86 19.39
 129 68 41.47 61.3 18.62
 130 69 40.88 62.54 19.7
 131 70 39.79 60.98 21.12
 132 71 41.49 60.66 20.99
 133 72 38.91 59.28 19.43
 134 73 38.66 58.24 19.2
 135 3 38.27 59.67 20.22
 136 74 38.85 60.19 18.14
 137 75 39.55 59.77 17.42
 138 76 37.5 60.25 17.41
 139 77 36.39 61.01 18.05
 140 78 35.07 60.55 17.45
 141 79 35.46 59.29 16.58
 142 80 34.74 58.48 16.7
 143 81 35.48 59.61 15.54
 144 82 34.53 61.35 16.95
 145 83 34.51 60.2 18.32
 146 84 36.47 62.08 17.84
 147 85 36.56 60.88 19.12
 148 86 36.84 58.94 17.18
 149 87 36.58 58.48 18.13
 150 88 37.59 57.81 16.46
 151 89 37.59 56.62 16.91
 152 1 38.33 58.11 15.36
 153 2 38.57 59.07 15.16
 154 5 39.19 57.17 14.59
 155 6 38.66 56.22 14.64
 156 7 39.43 57.6 13.17
 157 8 38.47 57.52 12.65
 158 9 39.72 58.65 13.25
 159 10 40.53 56.87 12.33
 160 90 41.9 57.17 12.37
 161 24 42.44 56.46 11.34
 162 25 43.45 56.56 10.99
 163 91 41.45 55.77 10.72
 164 29 41.52 55.3 9.83
 165 30 40.24 55.94 11.35
 166 31 39.29 55.62 10.95
 167 15 40.56 57 15.32
 168 16 41.07 57.93 15.95
 169 1 41.04 55.78 15.11
 170 2 40.45 55.06 14.74
 171 5 42.16 55.32 16.03
 172 6 41.78 55.48 17.04
 173 7 42.41 53.77 15.77
 174 8 41.53 53.16 15.99
 175 9 42.65 53.62 14.72
 176 10 43.62 53.21 16.6
 177 92 44.54 53.58 16.15
 178 93 43.48 53.49 17.65
 179 94 43.71 51.71 16.69
 180 95 42.91 50.86 16.28
 181 91 44.87 51.34 17.15
 182 96 45.09 50.36 17.03
 183 97 45.56 51.9 17.63
 184 15 43.5 56.12 15.98
 185 16 44.3 56.07 16.98
 186 1 43.72 56.95 14.91
 187 2 42.94 57.01 14.27
 188 5 44.8 58.01 14.74
 189 6 45.2 58.12 15.75
 190 7 45.95 57.55 13.83
 191 8 45.58 57.51 12.81
 192 9 46.76 58.27 13.93
 193 10 46.58 56.21 14.16
 194 22 47.66 56.01 14.93
 195 23 48.11 56.8 15.52
 196 98 47.97 54.64 14.98
 197 25 48.6 54.28 15.68
 198 28 47.05 53.95 14.23
 199 99 46.94 52.6 13.85
 200 100 47.68 51.9 14.21
 201 101 45.87 52.14 13.08
 202 102 45.8 51.1 12.82
 203 103 44.9 53.08 12.7
 204 104 44.11 52.77 12.03
 205 105 45.04 54.43 13.11
 206 106 44.38 55.18 12.69
 207 30 46.11 54.93 13.85
 208 15 44.37 59.47 14.41
 209 16 45.2 60.34 14.15
 210 1 43.07 59.81 14.39
 211 2 42.4 59.11 14.69
 212 5 42.64 61.22 14.04
 213 6 43.38 61.58 13.33
 214 7 41.39 61.06 13.19
 215 8 41.52 60.28 12.44
 216 9 40.52 60.91 13.83
 217 20 41.04 62.5 12.08
 218 21 42.11 62.41 11.29
 219 15 42.55 62.21 15.27
 220 16 41.71 62.01 16.12
 221 1 43.47 63.21 15.33
 222 2 44.13 63.29 14.57
 223 5 43.52 64.17 16.43
 224 17 42.9 65.04 16.2
 225 18 43.22 63.66 17.34
 226 15 44.85 64.83 16.76
 227 16 45.86 64.4 16.17
 228 1 44.87 65.85 17.61
 229 2 44 66.25 17.91
 230 5 46.07 66.58 17.91
 231 6 45.92 67.44 18.57
 232 7 46.92 65.66 18.82
 233 8 46.95 64.66 18.39
 234 9 47.9 66.12 18.88
 235 107 46.28 65.52 20.04
 236 21 46.89 65.16 20.68
 237 15 46.77 67.13 16.65
 238 16 48.02 67.07 16.52
 239 1 45.95 67.56 15.61
 240 2 44.94 67.49 15.67
 241 5 46.56 68.29 14.48
 242 6 47.48 67.86 14.06
 243 7 45.56 68.2 13.32
 244 8 45.24 67.16 13.22
 245 9 44.74 68.88 13.55
 246 10 46.1 68.63 12.01
 247 11 47.26 68.97 11.88
 248 12 45.32 68.69 10.95
 249 13 45.72 69.03 10.09
 250 14 44.36 68.38 10.99
 251 15 46.88 69.77 14.87
 252 16 46.14 70.29 15.68
 253 1 47.88 70.41 14.32
 254 108 48.44 69.95 13.61
 255 109 48.16 71.36 14.52
ITEM: TIMESTEP
2
ITEM: NUMBER OF ATOMS
255
ITEM: BOX BOUNDS pp pp pp
20.999 101.171
30.316 110.994
13.516 93.894
ITEM: ATOMS id type xu yu zu
 1 1 69.3 66.88 49.68
 2 2 69.04 65.92 49.81
 3 3 69.87 67.19 50.46
 4 4 69.9 67 48.87
 5 5 68.1 67.66 49.39
 6 6 67.75 67.27 48.43
 7 7 66.94 67.52 50.48
 8 8 67.22 67.9 51.46
 9 9 66.13 68.19 50.21
 10 10 66.44 66.16 50.67
 11 11 66.58 65.33 49.77
 12 12 65.99 65.84 51.85
 13 13 65.78 64.88 52.09
 14 14 66 66.48 52.64
 15 15 68.44 69.16 49.04
 16 16 68.41 69.6 47.91
 17 1 68.62 69.99 50.07
 18 2 68.58 69.58 51
 19 5 68.86 71.47 50.01
 20 17 67.92 71.92 49.68
 21 18 69.07 71.81 51.02
 22 15 70.04 71.91 49.15
 23 16 70.08 72.93 48.51
 24 1 71.04 70.98 49.1
 25 2 70.99 70.1 49.59
 26 5 72.17 71.14 48.25
 27 6 72.73 72.06 48.4
 28 7 73.18 70.05 48.68
 29 8 74.1 70.16 48.1
 30 9 73.41 70.15 49.74
 31 10 72.55 68.61 48.55
 32 11 71.36 68.4 48.75
 33 19 73.41 67.72 48.22
 34 15 71.96 71.07 46.75
 35 16 72.78 71.38 45.89
 36 1 70.78 70.67 46.39
 37 2 70.18 70.41 47.16
 38 5 70.22 70.51 45.01
 39 6 71 70.77 44.3
 40 7 69.92 69.07 44.78
 41 8 69.26 68.7 45.56
 42 9 69.51 69.03 43.77
 43 20 71.49 68.13 44.83
 44 21 71.04 67.03 44.22
 45 15 68.95 71.39 44.79
 46 16 68.19 71.15 43.87
 47 1 68.65 72.26 45.72
 48 2 69.43 72.52 46.32
 49 5 67.47 73.07 45.95
 50 6 67.66 73.63 46.86
 51 7 67.23 74.17 44.9
 52 8 67.01 73.89 43.87
 53 9 66.28 74.63 45.18
 54 10 68.18 75.36 44.97
 55 22 68.94 75.75 43.81
 56 23 68.92 75.12 42.93
 57 24 69.76 76.92 43.89
 58 25 70.47 77.2 43.11
 59 26 69.68 77.77 45.03
 60 27 70.25 78.68 45.03
 61 28 68.95 77.33 46.19
 62 29 68.97 77.81 47.16
 63 30 68.23 76.15 46.15
 64 31 67.64 75.88 47.01
 65 15 66.16 72.32 46.39
 66 16 65.08 72.87 46.56
 67 1 66.26 71.03 46.72
 68 2 67.12 70.55 46.5
 69 5 65.07 70.26 47.02
 70 6 64.29 70.56 46.32
 71 7 65.3 68.7 46.82
 72 32 66.17 68.32 47.34
 73 33 64.2 67.84 47.46
 74 34 64.11 66.82 47.09
 75 35 64.2 67.94 48.55
 76 36 63.28 68.37 47.2
 77 37 65.41 68.39 45.29
 78 38 64.48 68.82 44.92
 79 39 66.23 68.97 44.84
 80 22 65.35 66.9 44.92
 81 40 65.82 66.69 43.95
 82 41 65.86 66.25 45.63
 83 42 64.32 66.59 44.77
 84 15 64.68 70.71 48.47
 85 16 65.57 70.78 49.33
 86 1 63.39 70.83 48.77
 87 2 62.73 70.59 48.04
 88 5 62.87 70.86 50.12
 89 6 63.64 71.22 50.8
 90 7 61.78 71.96 50.24
 91 8 62.16 72.95 50
 92 9 61.08 71.68 49.46
 93 10 61.08 72 51.56
 94 21 60.81 70.96 51.75
 95 22 59.77 72.8 51.66
 96 40 59.13 72.48 50.83
 97 41 59.34 72.51 52.62
 98 42 59.99 73.87 51.63
 99 30 61.92 72.58 52.67
 100 13 62.56 71.81 53.1
 101 14 62.41 73.42 52.17
 102 43 61.35 72.95 53.52
 103 15 62.47 69.43 50.51
 104 16 61.53 68.95 49.87
 105 44 63.16 68.75 51.49
 106 45 64.09 69.26 52.52
 107 46 63.45 69.08 53.86
 108 47 63.17 67.62 54.06
 109 48 62.56 67.56 55.38
 110 49 63.54 67.41 56.64
 111 50 63.72 68.76 57.1
 112 51 64.69 66.49 56.42
 113 52 62.58 66.68 57.85
 114 53 61.45 67.33 58.42
 115 54 60.48 66.64 59.23
 116 55 60.77 65.32 59.73
 117 56 61.98 64.73 59.23
 118 57 62.79 65.38 58.23
 119 58 63.73 64.94 57.94
 120 59 62.36 63.78 59.58
 121 60 59.76 64.69 60.7
 122 61 59.41 63.73 60.31
 123 62 58.89 65.35 60.75
 124 63 60.11 64.66 61.73
 125 64 59.67 67.32 59.43
 126 65 61.25 68.38 58.24
 127 66 62.05 66.71 55.57
 128 67 64.09 67.05 53.91
 129 68 62.51 69.62 53.79
 130 69 64.2 69.49 54.54
 131 70 65.06 68.79 52.38
 132 71 64.23 70.34 52.4
 133 72 62.89 67.35 51.63
 134 73 62.28 66.94 50.82
 135 3 63.82 66.78 51.64
 136 74 62.13 67.21 52.96
 137 75 61.27 67.88 52.94
 138 76 61.68 65.83 53.23
 139 77 62.64 64.73 53.22
 140 78 61.73 63.45 53.32
 141 79 60.4 63.82 52.68
 142 80 60.26 63.33 51.72
 143 81 59.59 63.59 53.38
 144 82 61.64 63.22 54.38
 145 83 62.21 62.63 52.8
 146 84 63.43 64.87 53.95
 147 85 63.02 64.78 52.2
 148 86 60.51 65.33 52.42
 149 87 60.84 65.5 51.4
 150 88 59.14 66.04 52.69
 151 89 58.21 65.85 51.9
 152 1 58.95 66.62 53.88
 153 2 59.67 66.49 54.58
 154 5 57.76 67.38 54.26
 155 6 56.87 67 53.77
 156 7 57.64 67.36 55.85
 157 8 57.47 66.37 56.3
 158 9 58.59 67.67 56.28
 159 10 56.45 68.18 56.33
 160 90 55.1 68.04 56.02
 161 24 54.4 68.83 56.85
 162 25 53.32 68.92 56.81
 163 91 55.23 69.53 57.61
 164 29 54.99 70.24 58.29
 165 30 56.51 69.04 57.35
 166 31 57.38 69.35 57.92
 167 15 57.85 68.77 53.61
 168 16 58.88 69.44 53.7
 169 1 56.74 69.15 52.91
 170 2 56.03 68.49 52.62
 171 5 56.78 70.48 52.2
 172 6 57.63 71.12 52.45
 173 7 57 70.2 50.75
 174 8 56.04 69.93 50.31
 175 9 57.22 71.16 50.28
 176 10 58.19 69.31 50.28
 177 92 59.12 69.79 50.57
 178 93 58.15 68.33 50.75
 179 94 58.27 69.25 48.76
 180 95 57.32 68.99 48.08
 181 91 59.39 69.54 48.11
 182 96 59.24 69.75 47.13
 183 97 60.15 69.78 48.73
 184 15 55.51 71.36 52.32
 185 16 55.39 72.29 51.55
 186 1 54.55 70.95 53.18
 187 2 54.8 70.13 53.71
 188 5 53.38 71.65 53.52
 189 6 53.05 72.19 52.63
 190 7 52.23 70.74 53.85
 191 8 51.91 70.18 52.97
 192 9 52.48 70.01 54.62
 193 10 51 71.48 54.3
 194 22 50.24 71.18 55.38
 195 23 50.36 70.27 55.96
 196 98 49.31 72.17 55.65
 197 25 48.63 72.14 56.39
 198 28 49.4 73.2 54.68
 199 99 48.65 74.38 54.41
 200 100 48.07 74.78 55.23
 201 101 48.91 75.1 53.28
 202 102 48.38 76.02 53.07
 203 103 49.82 74.63 52.35
 204 104 49.85 75.19 51.43
 205 105 50.62 73.52 52.6
 206 106 51.31 73.2 51.83
 207 30 50.41 72.74 53.74
 208 15 53.63 72.72 54.59
 209 16 54.47 72.58 55.48
 210 1 53.04 73.87 54.32
 211 2 52.34 73.88 53.6
 212 5 53.28 75.17 54.95
 213 6 54.3 75.53 54.83
 214 7 52.55 76.27 54.23
 215 8 52.53 76.06 53.16
 216 9 51.51 76.31 54.55
 217 20 53.25 77.95 54.42
 218 21 52.27 78.45 53.66
 219 15 52.92 75.07 56.47
 220 16 53.37 75.91 57.24
 221 1 52.16 74.14 56.96
 222 2 51.9 73.41 56.3
 223 5 51.54 74.22 58.26
 224 17 51.19 75.25 58.27
 225 18 50.73 73.49 58.24
 226 15 52.42 73.94 59.44
 227 16 52.89 72.84 59.54
 228 1 52.62 74.89 60.37
 229 2 52.09 75.74 60.23
 230 5 53.34 74.83 61.63
 231 6 53.42 75.88 61.92
 232 7 52.46 74.06 62.62
 233 8 51.44 74.45 62.61
 234 9 52.34 73.01 62.36
 235 107 53 74.16 63.91
 236 21 52.32 73.8 64.48
 237 15 54.78 74.31 61.51
 238 16 55.22 73.49 62.3
 239 1 55.52 74.89 60.55
 240 2 55.09 75.57 59.95
 241 5 56.89 74.55 60.38
 242 6 56.89 73.46 60.46
 243 7 57.32 75.08 58.96
 244 8 57.14 76.16 58.99
 245 9 58.38 74.84 58.88
 246 10 56.55 74.59 57.68
 247 11 56.75 75.03 56.54
 248 12 55.72 73.6 57.84
 249 13 55.16 73.2 57.1
 250 14 55.55 73.28 58.78
 251 15 57.87 75.11 61.46
 252 16 57.44 75.87 62.28
 253 1 59.14 74.79 61.41
 254 108 59.42 74.04 60.8
 255 109 59.8 75.07 62.12
ITEM: TIMESTEP
3
ITEM: NUMBER OF ATOMS
255
ITEM: BOX BOUNDS pp pp pp
-22.856 57.316
-27.014 53.664
-36.614 43.764
ITEM: ATOMS id type xu yu zu
 1 1 10.44 14.36 7.6
 2 2 10.64 13.94 8.5
 3 3 11.04 15.15 7.4
 4 4 10.74 13.6 7.01
 5 5 8.99 14.65 7.51
 6 6 8.47 13.77 7.89
 7 7 8.53 15.92 8.31
 8 8 8.93 16.78 7.78
 9 9 7.45 16 8.27
 10 10 8.89 15.97 9.81
 11 11 9.84 15.36 10.26
 12 12 8.28 16.84 10.56
 13 13 8.41 16.9 11.56
 14 14 7.53 17.39 10.17
 15 15 8.52 14.77 6
 16 16 8.98 15.66 5.29
 17 1 7.78 13.75 5.57
 18 2 7.42 13.07 6.21
 19 5 7.59 13.52 4.08
 20 17 6.59 13.81 3.77
 21 18 8.33 14.14 3.57
 22 15 7.65 12.06 3.66
 23 16 7.1 11.21 4.33
 24 1 8.17 11.78 2.49
 25 2 8.38 12.55 1.86
 26 5 8.65 10.46 2.07
 27 6 7.9 9.67 2.06
 28 7 8.93 10.48 0.53
 29 8 9.91 10.94 0.41
 30 9 9.04 9.53 0.01
 31 10 7.97 11.37 -0.24
 32 11 6.75 11.15 -0.01
 33 19 8.39 12.18 -1.13
 34 15 9.83 9.98 2.84
 35 16 10.22 10.64 3.8
 36 1 10.43 8.83 2.45
 37 2 10.16 8.4 1.58
 38 5 11.41 8.08 3.3
 39 6 10.98 7.91 4.29
 40 7 11.56 6.71 2.58
 41 8 12.11 5.96 3.14
 42 9 10.55 6.29 2.56
 43 20 12.24 6.87 0.99
 44 21 13.55 6.75 1.18
 45 15 12.78 8.67 3.59
 46 16 13.64 8.09 4.22
 47 1 12.95 9.9 3.16
 48 2 12.17 10.4 2.76
 49 5 14.23 10.56 3.22
 50 6 15.02 9.83 3.33
 51 7 14.52 11.24 1.89
 52 8 13.8 12.05 1.76
 53 9 15.51 11.69 1.93
 54 10 14.46 10.32 0.7
 55 22 13.31 10.18 -0.05
 56 23 12.39 10.72 0.13
 57 24 13.2 9.29 -1.13
 58 25 12.25 8.99 -1.55
 59 26 14.35 8.53 -1.46
 60 27 14.22 7.82 -2.26
 61 28 15.52 8.69 -0.73
 62 29 16.38 8.07 -0.93
 63 30 15.58 9.61 0.32
 64 31 16.54 9.69 0.82
 65 15 14.33 11.48 4.42
 66 16 13.55 12.46 4.54
 67 1 15.36 11.25 5.25
 68 2 16.03 10.5 5.18
 69 5 15.5 12.01 6.48
 70 6 14.48 12.16 6.85
 71 7 16.24 11.09 7.55
 72 32 17.17 10.82 7.06
 73 33 16.6 11.82 8.87
 74 34 15.91 12.64 9.06
 75 35 16.75 11.06 9.64
 76 36 17.57 12.26 8.66
 77 37 15.4 9.79 7.75
 78 38 14.58 10.12 8.38
 79 39 14.92 9.43 6.84
 80 22 16.12 8.63 8.39
 81 40 17.16 8.48 8.09
 82 41 16.25 8.8 9.46
 83 42 15.58 7.7 8.24
 84 15 16.17 13.42 6.39
 85 16 15.87 14.24 7.26
 86 1 16.94 13.76 5.35
 87 2 17.14 12.99 4.73
 88 5 17.91 14.86 5.33
 89 6 17.56 15.55 6.09
 90 7 19.36 14.41 5.7
 91 8 19.69 13.66 4.98
 92 9 20.09 15.22 5.66
 93 10 19.5 13.66 7.03
 94 21 18.9 12.75 6.92
 95 22 19.01 14.59 8.17
 96 40 19.7 15.43 8.29
 97 41 17.98 14.91 8.1
 98 42 19.13 14.11 9.15
 99 30 20.91 13.25 7.27
 100 13 21.14 12.49 6.52
 101 14 21.6 14.09 7.25
 102 43 20.98 12.76 8.24
 103 15 17.79 15.58 4.03
 104 16 17.44 14.89 3.07
 105 44 18.23 16.85 3.86
 106 45 18.69 17.75 4.95
 107 46 20.13 18.19 4.64
 108 47 20.14 19.01 3.28
 109 48 21.52 19.45 3.01
 110 49 21.73 20.92 3.53
 111 50 22 20.88 4.93
 112 51 20.78 21.75 2.79
 113 52 23.36 21.27 2.89
 114 53 24.54 20.68 3.54
 115 54 25.73 20.8 2.86
 116 55 25.84 21.5 1.69
 117 56 24.78 22.25 1.11
 118 57 23.5 22.13 1.74
 119 58 22.62 22.37 1.16
 120 59 24.85 22.73 0.14
 121 60 27.26 21.59 1.01
 122 61 27.28 22.4 0.29
 123 62 27.5 20.73 0.39
 124 63 27.87 21.75 1.9
 125 64 26.59 20.28 3.25
 126 65 24.38 19.98 4.35
 127 66 21.52 19.87 2.09
 128 67 19.42 19.82 3.41
 129 68 20.76 17.3 4.68
 130 69 20.35 18.77 5.53
 131 70 18.02 18.6 5.01
 132 71 18.76 17.26 5.92
 133 72 18.07 17.59 2.58
 134 73 17.64 16.9 1.85
 135 3 17.38 18.42 2.69
 136 74 19.49 18.13 2.16
 137 75 20.15 17.28 1.96
 138 76 19.37 18.92 0.92
 139 77 18.59 20.15 0.91
 140 78 17.97 20.39 -0.44
 141 79 18.57 19.31 -1.29
 142 80 18 18.91 -2.12
 143 81 19.51 19.68 -1.71
 144 82 18.3 21.37 -0.79
 145 83 16.9 20.23 -0.32
 146 84 19.18 21.02 1.21
 147 85 17.81 20.09 1.67
 148 86 18.89 18.23 -0.33
 149 87 17.9 17.82 -0.12
 150 88 19.82 17.11 -0.82
 151 89 20.62 17.31 -1.68
 152 1 19.68 15.9 -0.22
 153 2 18.83 15.8 0.32
 154 5 20.47 14.66 -0.54
 155 6 20.68 14.51 -1.6
 156 7 21.91 14.73 -0.01
 157 8 22.39 15.65 -0.37
 158 9 21.88 14.83 1.07
 159 10 22.9 13.65 -0.38
 160 90 23.15 12.48 0.33
 161 24 24.07 11.81 -0.41
 162 25 24.44 10.82 -0.19
 163 91 24.35 12.52 -1.53
 164 29 24.9 12.2 -2.31
 165 30 23.62 13.63 -1.56
 166 31 23.53 14.33 -2.38
 167 15 19.84 13.33 0.02
 168 16 19.24 13.34 1.14
 169 1 19.82 12.24 -0.8
 170 2 20.22 12.23 -1.73
 171 5 19.11 11.01 -0.5
 172 6 18.1 11.3 -0.18
 173 7 19.15 10.07 -1.66
 174 8 20.18 9.92 -1.97
 175 9 18.57 9.19 -1.37
 176 10 18.35 10.58 -2.83
 177 92 17.29 10.62 -2.58
 178 93 18.67 11.59 -3.09
 179 94 18.55 9.61 -3.95
 180 95 18.4 8.45 -3.76
 181 91 18.83 10.06 -5.17
 182 96 19.09 9.38 -5.86
 183 97 18.9 11.02 -5.48
 184 15 19.64 10.23 0.67
 185 16 18.88 9.5 1.29
 186 1 20.91 10.44 1.19
 187 2 21.62 11.07 0.85
 188 5 21.51 9.57 2.21
 189 6 21.25 8.52 2.09
 190 7 23.02 9.55 2.11
 191 8 23.27 8.99 1.2
 192 9 23.42 10.56 2.02
 193 10 23.71 8.82 3.26
 194 22 24.57 9.38 4.07
 195 23 24.89 10.41 4.04
 196 98 25.15 8.5 4.96
 197 25 26.03 8.71 5.4
 198 28 24.53 7.29 4.82
 199 99 24.62 6.06 5.53
 200 100 25.2 5.99 6.44
 201 101 24.06 4.87 5.02
 202 102 24.19 3.92 5.51
 203 103 23.4 4.97 3.8
 204 104 22.99 4.06 3.39
 205 105 23.16 6.21 3.13
 206 106 22.68 6.19 2.16
 207 30 23.7 7.46 3.64
 208 15 20.98 9.94 3.64
 209 16 20.97 11.09 4.02
 210 1 20.52 8.95 4.44
 211 2 20.36 8.07 3.97
 212 5 20.07 9.2 5.76
 213 6 19.35 10.02 5.7
 214 7 19.43 7.97 6.29
 215 8 19.14 8.07 7.34
 216 9 18.61 7.72 5.63
 217 20 20.5 6.48 6.05
 218 21 19.52 5.57 6.08
 219 15 21.23 9.59 6.79
 220 16 20.91 10.06 7.91
 221 1 22.56 9.47 6.55
 222 2 22.86 8.91 5.77
 223 5 23.57 10.05 7.4
 224 17 24.58 10.12 6.99
 225 18 23.37 11.08 7.69
 226 15 23.66 9.28 8.71
 227 16 23.46 8.13 8.76
 228 1 23.81 10 9.77
 229 2 23.87 10.99 9.61
 230 5 23.83 9.47 11.1
 231 6 24.47 8.58 11.16
 232 7 24.52 10.43 12
 233 8 24.56 10.01 13.01
 234 9 25.56 10.67 11.79
 235 107 23.65 11.54 12.02
 236 21 24.23 12.31 12.07
 237 15 22.49 9.01 11.76
 238 16 22.49 8.66 12.94
 239 1 21.39 9.12 10.98
 240 2 21.39 9.37 10.01
 241 5 20 8.69 11.49
 242 6 20.1 8.86 12.56
 243 7 18.87 9.62 11.01
 244 8 18.68 9.56 9.94
 245 9 17.98 9.35 11.58
 246 10 19.2 11.05 11.26
 247 11 18.77 11.76 12.2
 248 12 19.89 11.66 10.31
 249 13 20.15 12.64 10.3
 250 14 20.1 11.15 9.46
 251 15 19.86 7.22 11.06
 252 16 18.79 6.89 10.51
 253 1 20.78 6.34 11.41
 254 108 21.52 6.69 12.01
 255 109 20.66 5.37 11.18
ITEM: TIMESTEP
4
ITEM: NUMBER OF ATOMS
255
ITEM: BOX BOUNDS pp pp pp
15.714 95.886
34.116 114.794
0.0860023 80.464
ITEM: ATOMS id type xu yu zu
 1 1 63.98 80.72 37.54
 2 2 64.2 81.63 37.91
 3 3 64.32 80.64 36.59
 4 4 64.38 80.08 38.21
 5 5 62.51 80.44 37.69
 6 6 62.4 79.37 37.5
 7 7 62.05 80.57 39.11
 8 8 62.4 81.47 39.6
 9 9 60.98 80.6 39.26
 10 10 62.46 79.43 39.97
 11 11 63.28 78.56 39.56
 12 12 61.99 79.4 41.2
 13 13 62.33 78.6 41.72
 14 14 61.25 80 41.53
 15 15 61.58 81.24 36.83
 16 16 61.93 82.32 36.3
 17 1 60.48 80.59 36.61
 18 2 60.33 79.7 37.06
 19 5 59.54 81 35.61
 20 17 59.46 82.07 35.78
 21 18 59.91 80.85 34.6
 22 15 58.13 80.45 35.92
 23 16 57.18 81.01 35.34
 24 1 57.96 79.33 36.72
 25 2 58.73 79.09 37.33
 26 5 56.66 78.67 37.1
 27 6 56.82 77.67 37.5
 28 7 55.92 79.43 38.21
 29 8 55.35 80.29 37.87
 30 9 55.28 78.76 38.78
 31 10 56.91 80.07 39.25
 32 11 56.76 81.37 39.49
 33 19 57.67 79.36 39.93
 34 15 55.74 78.21 35.95
 35 16 54.55 78.13 36.01
 36 1 56.41 77.82 34.83
 37 2 57.42 77.87 34.86
 38 5 55.92 77.54 33.47
 39 6 55.12 78.23 33.2
 40 7 57.02 77.67 32.37
 41 8 57.95 77.16 32.64
 42 9 56.65 77.37 31.39
 43 20 57.38 79.46 32.44
 44 21 56.13 79.9 32.25
 45 15 55.15 76.15 33.52
 46 16 54.33 75.85 32.63
 47 1 55.43 75.33 34.54
 48 2 56.21 75.62 35.1
 49 5 55.1 73.89 34.64
 50 6 54.26 73.7 33.97
 51 7 56.34 73.08 34.23
 52 8 57.13 73.29 34.95
 53 9 56.07 72.02 34.21
 54 10 56.86 73.45 32.89
 55 22 58.23 73.86 32.65
 56 23 58.9 73.94 33.49
 57 24 58.68 73.98 31.37
 58 25 59.67 74.34 31.14
 59 26 57.8 73.83 30.29
 60 27 58.11 73.98 29.26
 61 28 56.45 73.55 30.52
 62 29 55.75 73.31 29.74
 63 30 55.99 73.25 31.79
 64 31 54.95 73.01 31.95
 65 15 54.55 73.6 36.1
 66 16 53.55 72.85 36.26
 67 1 55.2 74.12 37.11
 68 2 56.09 74.58 36.95
 69 5 54.83 74.05 38.53
 70 6 53.79 73.74 38.63
 71 7 55.63 72.9 39.24
 72 32 55.39 72 38.67
 73 33 57.24 72.99 39.18
 74 34 57.59 73.02 38.15
 75 35 57.62 73.87 39.69
 76 36 57.67 72.13 39.69
 77 37 55.16 72.7 40.67
 78 38 55.83 73.22 41.35
 79 39 54.12 72.99 40.86
 80 22 55.28 71.2 40.96
 81 40 55.14 70.98 42.01
 82 41 54.67 70.57 40.31
 83 42 56.32 70.87 40.87
 84 15 55.04 75.37 39.33
 85 16 56.11 76.01 39.15
 86 1 54.06 75.84 40.06
 87 2 53.18 75.35 40.18
 88 5 54.16 76.96 41.01
 89 6 54.62 77.79 40.47
 90 7 52.75 77.37 41.55
 91 8 52.43 76.66 42.32
 92 9 52.89 78.31 42.07
 93 10 51.57 77.53 40.55
 94 21 51.5 76.56 40.07
 95 22 51.75 78.67 39.52
 96 40 51.59 79.63 40.02
 97 41 52.73 78.57 39.06
 98 42 50.92 78.46 38.85
 99 30 50.16 77.59 41.19
 100 13 50.22 78.62 41.56
 101 14 49.45 77.59 40.37
 102 43 49.92 76.94 42.03
 103 15 55.14 76.69 42.2
 104 16 55.16 75.58 42.67
 105 44 55.84 77.66 42.78
 106 45 55.61 79.06 42.42
 107 46 55.14 79.88 43.7
 108 47 56.01 79.54 44.92
 109 48 55.54 80.14 46.16
 110 49 56.01 81.62 46.54
 111 50 55.81 82.41 45.32
 112 51 57.22 81.24 47.2
 113 52 54.69 81.85 47.66
 114 53 54.94 81.87 49.01
 115 54 53.98 82.19 49.96
 116 55 52.65 82.43 49.5
 117 56 52.37 82.24 48.11
 118 57 53.36 82.01 47.18
 119 58 53.13 82.01 46.12
 120 59 51.37 82.47 47.76
 121 60 51.65 82.85 50.51
 122 61 51.82 83.87 50.87
 123 62 51.59 82.1 51.29
 124 63 50.7 82.89 49.98
 125 64 54.31 82.3 50.98
 126 65 55.95 81.75 49.37
 127 66 56.18 79.84 46.87
 128 67 57.03 79.88 44.74
 129 68 54.09 79.73 43.95
 130 69 55.34 80.93 43.45
 131 70 56.57 79.47 42.1
 132 71 54.92 79.32 41.62
 133 72 56.77 77.44 43.85
 134 73 56.95 76.37 43.92
 135 3 57.72 77.91 43.58
 136 74 56.12 77.97 45.09
 137 75 55.14 77.51 45.19
 138 76 56.82 77.62 46.42
 139 77 58.26 77.93 46.54
 140 78 58.64 77.21 47.77
 141 79 57.73 76.06 48.01
 142 80 58.24 75.13 47.8
 143 81 57.34 76 49.03