ITEM: TIMESTEP
0
ITEM: NUMBER OF ATOMS
255
ITEM: BOX BOUNDS pp pp pp
-41.906 38.266
11.9905 92.6685
38.3555 118.733
ITEM: ATOMS id type xu yu zu
 1 1 -1.674 48.889 80.614
 2 2 -2.489 49.24 81.095
 3 3 -1.731 47.883 80.685
 4 4 -1.722 49.102 79.628
 5 5 -0.373 49.376 81.139
 6 6 0.385 49.059 80.422
 7 7 -0.332 50.876 81.416
 8 8 -0.859 50.98 82.365
 9 9 0.724 51.122 81.527
 10 10 -0.924 51.781 80.424
 11 11 -0.672 51.678 79.204
 12 12 -1.757 52.695 80.835
 13 13 -2.291 53.224 80.161
 14 14 -1.869 52.774 81.836
 15 15 -0.129 48.631 82.452
 16 16 -1.11 48.094 83.001
 17 1 1.072 48.518 83.089
 18 2 1.901 48.806 82.589
 19 5 1.259 48.074 84.509
 20 17 2.34 48.102 84.644
 21 18 0.739 48.696 85.239
 22 15 0.843 46.59 84.642
 23 16 1.427 45.686 84.056
 24 1 -0.208 46.325 85.32
 25 2 -0.727 47.137 85.623
 26 5 -0.681 45.004 85.573
 27 6 -0.038 44.335 86.146
 28 7 -1.871 45.167 86.473
 29 8 -2.21 44.209 86.868
 30 9 -1.632 45.749 87.363
 31 10 -2.975 45.958 85.743
 32 11 -3.659 45.44 84.84
 33 19 -3.144 47.175 86.017
 34 15 -1.075 44.135 84.382
 35 16 -0.988 42.933 84.371
 36 1 -1.47 44.791 83.24
 37 2 -1.568 45.796 83.27
 38 5 -1.694 44.091 81.983
 39 6 -0.906 43.343 81.903
 40 7 -3.094 43.49 82.097
 41 8 -3.137 42.725 82.872
 42 9 -3.815 44.304 82.17
 43 20 -3.416 42.612 80.521
 44 21 -4.73 42.569 80.756
 45 15 -1.522 45.016 80.733
 46 16 -1.989 46.141 80.744
 47 1 -0.741 44.588 79.717
 48 2 -0.312 43.687 79.871
 49 5 -0.043 45.386 78.654
 50 6 0.507 44.699 78.01
 51 7 -1.18 45.957 77.738
 52 8 -1.779 46.702 78.263
 53 9 -0.613 46.419 76.93
 54 10 -2.126 44.942 77.093
 55 22 -3.488 44.744 77.538
 56 23 -3.833 45.327 78.379
 57 24 -4.234 43.809 76.95
 58 25 -5.231 43.605 77.313
 59 26 -3.799 43.014 75.901
 60 27 -4.35 42.22 75.42
 61 28 -2.48 43.253 75.43
 62 29 -2.056 42.639 74.649
 63 30 -1.593 44.168 75.989
 64 31 -0.558 44.239 75.687
 65 15 1.006 46.445 79.123
 66 16 1.078 46.844 80.275
 67 1 1.834 46.813 78.104
 68 2 1.584 46.502 77.177
 69 5 2.924 47.702 78.148
 70 6 3.129 47.943 79.191
 71 7 4.164 47.044 77.531
 72 32 3.991 46.675 76.52
 73 33 5.333 48.065 77.36
 74 34 5.525 48.687 78.234
 75 35 6.293 47.596 77.144
 76 36 5.067 48.709 76.522
 77 37 4.68 45.936 78.427
 78 38 5.698 45.658 78.151
 79 39 4.747 46.264 79.464
 80 22 3.893 44.6 78.403
 81 40 3.107 44.727 79.148
 82 41 3.427 44.498 77.423
 83 42 4.55 43.802 78.749
 84 15 2.532 49.01 77.434
 85 16 1.995 48.938 76.37
 86 1 2.715 50.192 78.021
 87 2 3.071 50.181 78.966
 88 5 2.353 51.52 77.414
 89 6 1.324 51.413 77.069
 90 7 2.473 52.624 78.522
 91 8 1.818 52.337 79.344
 92 9 3.46 52.638 78.984
 93 10 2.154 54.151 78.186
 94 21 2.741 54.37 77.294
 95 22 2.533 55.295 79.128
 96 40 2.29 56.234 78.629
 97 41 2.109 55.263 80.132
 98 42 3.613 55.217 79.254
 99 30 0.725 54.387 77.786
 100 13 0.086 54.379 78.67
 101 14 0.752 55.347 77.27
 102 43 0.372 53.634 77.081
 103 15 3.383 51.866 76.309
 104 16 4.579 51.727 76.481
 105 44 2.979 52.264 75.112
 106 45 1.624 52.671 74.66
 107 46 1.616 54.113 74.247
 108 47 2.697 54.467 73.182
 109 48 2.632 55.902 72.944
 110 49 3.383 56.545 71.666
 111 50 3.058 55.693 70.596
 112 51 4.67 56.931 72.095
 113 52 2.439 57.998 71.338
 114 53 1.279 58.072 70.545
 115 54 0.498 59.265 70.409
 116 55 0.92 60.394 71.097
 117 56 2.139 60.392 71.817
 118 57 2.833 59.166 72.038
 119 58 3.776 59.107 72.561
 120 59 2.544 61.294 72.252
 121 60 0.234 61.687 70.902
 122 61 0.653 62.295 70.1
 123 62 0.321 62.262 71.823
 124 63 -0.8 61.488 70.619
 125 64 -0.396 59.27 69.804
 126 65 0.887 57.228 69.995
 127 66 3.309 56.306 73.575
 128 67 2.283 54.008 72.284
 129 68 1.699 54.912 74.984
 130 69 0.687 54.264 73.698
 131 70 1.443 52.069 73.77
 132 71 0.833 52.365 75.346
 133 72 3.896 52.441 73.99
 134 73 4.856 51.979 74.222
 135 3 3.476 52.002 73.085
 136 74 4.145 53.88 73.593
 137 75 4.376 54.407 74.518
 138 76 5.231 54.028 72.541
 139 77 5.178 53.227 71.282
 140 78 6.456 53.509 70.616
 141 79 7.423 54.089 71.645
 142 80 8.298 53.456 71.79
 143 81 7.613 55.155 71.514
 144 82 6.322 54.124 69.726
 145 83 6.775 52.516 70.301
 146 84 4.274 53.441 70.712
 147 85 5.159 52.156 71.484
 148 86 6.648 53.82 72.988
 149 87 6.769 52.81 73.379
 150 88 7.089 54.82 74.107
 151 89 7.885 54.515 75.028
 152 1 6.577 56.088 74.006
 153 2 6.14 56.184 73.1
 154 5 6.592 57.159 75.009
 155 6 7.116 56.745 75.87
 156 7 7.421 58.338 74.525
 157 8 8.464 58.046 74.399
 158 9 7.053 58.797 73.608
 159 10 7.534 59.526 75.422
 160 90 6.753 60.684 75.266
 161 24 6.924 61.457 76.396
 162 25 6.528 62.439 76.612
 163 91 7.857 60.811 77.139
 164 29 7.867 61.073 78.114
 165 30 8.196 59.66 76.6
 166 31 8.789 58.905 77.096
 167 15 5.209 57.468 75.652
 168 16 4.186 57.044 75.129
 169 1 5.215 58.292 76.743
 170 2 6.112 58.704 76.957
 171 5 4.043 58.474 77.555
 172 6 3.715 57.452 77.742
 173 7 4.361 59.163 78.904
 174 8 5.239 58.662 79.312
 175 9 4.64 60.187 78.653
 176 10 3.285 59.168 80.045
 177 92 2.783 58.201 80.088
 178 93 3.82 59.398 80.966
 179 94 2.166 60.124 79.981
 180 95 2.13 61.042 79.182
 181 91 1.214 59.923 80.803
 182 96 0.577 60.704 80.878
 183 97 1.29 59.166 81.466
 184 15 2.934 59.215 76.773
 185 16 3.111 60.301 76.176
 186 1 1.725 58.675 76.768
 187 2 1.73 57.719 77.093
 188 5 0.483 59.204 76.128
 189 6 0.402 60.291 76.118
 190 7 0.411 58.626 74.699
 191 8 1.287 58.992 74.164
 192 9 0.457 57.537 74.726
 193 10 -0.74 58.932 73.883
 194 22 -1.282 60.096 73.689
 195 23 -0.832 61.008 74.053
 196 98 -2.354 60.07 72.834
 197 25 -2.958 60.854 72.633
 198 28 -2.455 58.786 72.329
 199 99 -3.31 58.16 71.391
 200 100 -4.095 58.763 70.96
 201 101 -3.32 56.785 71.17
 202 102 -4.134 56.361 70.602
 203 103 -2.413 55.994 71.95
 204 104 -2.431 54.915 71.9
 205 105 -1.401 56.63 72.719
 206 106 -0.601 56.058 73.164
 207 30 -1.488 58.01 73.006
 208 15 -0.822 58.818 76.91
 209 16 -0.938 57.684 77.403
 210 1 -1.777 59.674 77.089
 211 2 -1.562 60.586 76.711
 212 5 -3.074 59.462 77.643
 213 6 -3.028 58.487 78.128
 214 7 -3.374 60.507 78.733
 215 8 -3.459 61.473 78.235
 216 9 -4.343 60.21 79.134
 217 20 -2.129 60.769 79.977
 218 21 -1.223 61.331 79.173
 219 15 -4.174 59.4 76.577
 220 16 -4.143 60.081 75.571
 221 1 -5.24 58.688 76.903
 222 2 -5.112 58.044 77.67
 223 5 -6.548 58.683 76.219
 224 17 -6.846 59.716 76.045
 225 18 -6.306 58.181 75.282
 226 15 -7.704 58.046 76.961
 227 16 -7.669 57.745 78.144
 228 1 -8.814 57.86 76.252
 229 2 -8.769 58.052 75.261
 230 5 -10.037 57.178 76.77
 231 6 -10.472 57.797 77.555
 232 7 -11.157 57.156 75.747
 233 8 -10.877 56.59 74.858
 234 9 -11.997 56.685 76.258
 235 107 -11.548 58.44 75.278
 236 21 -12.429 58.624 75.612
 237 15 -9.826 55.701 77.172
 238 16 -10.696 55.157 77.888
 239 1 -8.699 55.089 76.693
 240 2 -8.017 55.671 76.229
 241 5 -8.339 53.751 77.202
 242 6 -8.756 53.625 78.201
 243 7 -8.871 52.633 76.312
 244 8 -8.791 52.841 75.245
 245 9 -8.266 51.741 76.475
 246 10 -10.299 52.308 76.564
 247 11 -11.167 52.715 75.792
 248 12 -10.573 51.478 77.533
 249 13 -11.542 51.292 77.75
 250 14 -9.866 51.006 78.079
 251 15 -6.792 53.7 77.416
 252 16 -6.115 52.729 77.149
 253 1 -6.187 54.802 77.851
 254 108 -6.677 55.652 78.088
 255 109 -5.179 54.865 77.828
ITEM: TIMESTEP
1
ITEM: NUMBER OF ATOMS
255
ITEM: BOX BOUNDS pp pp pp
-40.116 40.056
11.136 91.814
36.816 117.194
ITEM: ATOMS id type xu yu zu
 1 1 -1.1 48.5 78.96
 2 2 -0.54 47.84 78.45
 3 3 -1.07 49.37 78.45
 4 4 -2.05 48.16 79.06
 5 5 -0.45 48.69 80.27
 6 6 0.62 48.74 80.06
 7 7 -1.02 49.82 81.12
 8 8 -2.01 49.6 81.53
 9 9 -0.41 49.78 82.02
 10 10 -1 51.19 80.48
 11 11 -0.7 51.32 79.28
 12 12 -1.01 52.22 81.26
 13 13 -0.77 53.12 80.88
 14 14 -1.13 52.13 82.26
 15 15 -0.77 47.52 81.1
 16 16 -1.85 46.91 80.94
 17 1 0 47.18 82.12
 18 2 0.67 47.89 82.38
 19 5 -0.23 46.03 83.07
 20 17 0.6 45.97 83.77
 21 18 -1.14 46.19 83.64
 22 15 -0.43 44.66 82.36
 23 16 0.39 44.35 81.43
 24 1 -1.45 43.92 82.83
 25 2 -2.04 44.45 83.46
 26 5 -1.95 42.63 82.33
 27 6 -1.01 42.08 82.31
 28 7 -2.79 41.86 83.35
 29 8 -2.76 40.81 83.03
 30 9 -2.17 41.84 84.24
 31 10 -4.17 42.49 83.46
 32 11 -5.06 41.83 84.05
 33 19 -4.39 43.63 82.92
 34 15 -2.48 42.53 80.86
 35 16 -2.78 41.42 80.42
 36 1 -2.54 43.65 80.16
 37 2 -2.33 44.47 80.7
 38 5 -3.02 43.77 78.72
 39 6 -2.84 42.78 78.32
 40 7 -4.52 44.22 78.73
 41 8 -5.13 43.47 79.23
 42 9 -4.55 45.22 79.17
 43 20 -4.92 44.24 76.96
 44 21 -4.2 43.18 76.58
 45 15 -2.01 44.73 78.19
 46 16 -2.23 45.95 77.93
 47 1 -0.92 44.08 77.85
 48 2 -0.89 43.12 78.18
 49 5 0.31 44.55 77.24
 50 6 0.88 43.64 77.08
 51 7 -0.01 45.27 75.9
 52 8 -0.5 46.22 76.1
 53 9 0.97 45.57 75.52
 54 10 -0.69 44.28 74.97
 55 22 -2.05 44.37 74.57
 56 23 -2.68 45.13 75.02
 57 24 -2.61 43.44 73.61
 58 25 -3.66 43.34 73.38
 59 26 -1.79 42.44 73.02
 60 27 -2.25 41.73 72.36
 61 28 -0.41 42.38 73.34
 62 29 0.21 41.59 72.94
 63 30 0.14 43.31 74.3
 64 31 1.19 43.27 74.56
 65 15 1.13 45.48 78.1
 66 16 0.58 46.46 78.59
 67 1 2.34 45.16 78.49
 68 2 2.71 44.26 78.19
 69 5 3.16 46.15 79.26
 70 6 2.64 46.47 80.16
 71 7 4.53 45.42 79.7
 72 32 5.02 44.98 78.83
 73 33 5.55 46.36 80.4
 74 34 6.42 45.78 80.7
 75 35 6.03 47.02 79.69
 76 36 5.08 46.82 81.27
 77 37 4.2 44.22 80.56
 78 38 3.43 44.6 81.24
 79 39 3.7 43.47 79.95
 80 22 5.39 43.51 81.23
 81 40 6.16 43.25 80.51
 82 41 5.85 44.01 82.08
 83 42 4.98 42.57 81.6
 84 15 3.45 47.37 78.47
 85 16 3.73 47.36 77.27
 86 1 3.55 48.51 79.16
 87 2 3.3 48.45 80.14
 88 5 3.66 49.85 78.62
 89 6 2.9 50.05 77.86
 90 7 3.35 50.96 79.62
 91 8 2.39 50.74 80.1
 92 9 4.08 50.85 80.41
 93 10 3.37 52.46 79.05
 94 21 3.02 52.53 78.02
 95 22 4.72 53.01 79.25
 96 40 5.06 52.97 80.29
 97 41 5.47 52.51 78.64
 98 42 4.79 54.06 78.98
 99 30 2.44 53.33 79.84
 100 13 2.53 53.26 80.93
 101 14 2.67 54.36 79.57
 102 43 1.41 53.05 79.62
 103 15 5.03 49.98 78
 104 16 5.96 50.02 78.76
 105 44 5.33 50.16 76.68
 106 45 4.34 50.13 75.59
 107 46 4.15 51.56 75.27
 108 47 5.42 52.2 74.64
 109 48 5.14 53.54 74.26
 110 49 5.9 54.32 73.05
 111 50 6.11 53.31 72.07
 112 51 6.96 55.06 73.72
 113 52 4.7 55.48 72.56
 114 53 4.17 55.3 71.23
 115 54 3.23 56.16 70.75
 116 55 2.78 57.23 71.57
 117 56 3.3 57.46 72.89
 118 57 4.25 56.57 73.32
 119 58 4.67 56.67 74.31
 120 59 2.91 58.31 73.43
 121 60 1.72 58.07 70.92
 122 61 1.31 57.66 69.99
 123 62 2.26 58.99 70.71
 124 63 0.84 58.33 71.51
 125 64 2.78 56.05 69.77
 126 65 4.39 54.4 70.68
 127 66 5.65 54.09 74.94
 128 67 5.6 51.52 73.82
 129 68 3.96 52.09 76.21
 130 69 3.24 51.7 74.69
 131 70 4.79 49.67 74.71
 132 71 3.43 49.6 75.85
 133 72 6.63 50.53 76.14
 134 73 7.44 50.32 76.84
 135 3 6.8 49.9 75.27
 136 74 6.6 51.97 75.69
 137 75 6.35 52.59 76.55
 138 76 7.87 52.52 75.14
 139 77 8.59 51.74 74.12
 140 78 9.99 52.28 74.09
 141 79 10.3 52.83 75.52
 142 80 11.06 52.2 75.97
 143 81 10.57 53.88 75.41
 144 82 10.12 53.08 73.36
 145 83 10.71 51.54 73.72
 146 84 8.09 52.04 73.2
 147 85 8.66 50.65 74.18
 148 86 8.92 52.76 76.17
 149 87 8.96 51.91 76.85
 150 88 8.57 54.04 77.08
 151 89 8.48 54.02 78.25
 152 1 8.42 55.19 76.39
 153 2 8.25 55.13 75.4
 154 5 7.94 56.49 76.93
 155 6 8.39 56.55 77.92
 156 7 8.43 57.65 76.04
 157 8 9.52 57.7 76.06
 158 9 8.03 57.54 75.04
 159 10 7.95 59.01 76.54
 160 90 7.86 59.39 77.88
 161 24 7.64 60.69 77.94
 162 25 7.44 61.34 78.78
 163 91 7.61 61.17 76.67
 164 29 7.41 62.14 76.48
 165 30 7.74 60.1 75.8
 166 31 7.83 60 74.73
 167 15 6.42 56.37 77.21
 168 16 5.68 55.72 76.49
 169 1 5.99 57.1 78.17
 170 2 6.68 57.68 78.62
 171 5 4.6 57.16 78.6
 172 6 4.49 56.17 79.03
 173 7 4.38 58.17 79.76
 174 8 5.2 57.92 80.43
 175 9 4.37 59.21 79.43
 176 10 3.02 57.87 80.44
 177 92 2.15 58.25 79.89
 178 93 2.98 56.8 80.64
 179 94 3.03 58.59 81.77
 180 95 3.49 59.7 81.86
 181 91 2.47 58.11 82.82
 182 96 2.49 58.62 83.69
 183 97 2.11 57.16 82.84
 184 15 3.51 57.25 77.49
 185 16 3.51 58.14 76.64
 186 1 2.47 56.45 77.58
 187 2 2.55 55.85 78.39
 188 5 1.49 56.16 76.55
 189 6 1.43 56.98 75.83
 190 7 2.03 54.94 75.81
 191 8 2.88 55.32 75.25
 192 9 2.41 54.13 76.42
 193 10 1.17 54.33 74.78
 194 22 1.25 54.58 73.48
 195 23 1.87 55.3 72.98
 196 98 0.34 53.82 72.82
 197 25 -0.02 54.14 71.93
 198 28 -0.46 53.06 73.66
 199 99 -1.66 52.33 73.51
 200 100 -2.13 52.19 72.55
 201 101 -2.34 51.79 74.65
 202 102 -3.28 51.26 74.51
 203 103 -1.74 51.98 75.9
 204 104 -2.24 51.59 76.77
 205 105 -0.57 52.75 76.05
 206 106 -0.07 52.84 77
 207 30 0.08 53.37 74.94
 208 15 0.07 55.94 77.07
 209 16 -0.13 55.54 78.23
 210 1 -1.02 56.26 76.33
 211 2 -0.84 56.62 75.4
 212 5 -2.38 56.21 76.81
 213 6 -2.46 55.69 77.77
 214 7 -2.85 57.63 77.09
 215 8 -2.79 58.18 76.16
 216 9 -3.88 57.48 77.4
 217 20 -1.82 58.43 78.44
 218 21 -1.98 59.67 77.98
 219 15 -3.25 55.47 75.69
 220 16 -3.35 55.87 74.54
 221 1 -3.94 54.42 76.1
 222 2 -3.93 54.19 77.09
 223 5 -5.06 53.91 75.33
 224 17 -5.31 54.59 74.52
 225 18 -4.86 52.98 74.79
 226 15 -6.37 53.85 76.19
 227 16 -6.36 53.36 77.28
 228 1 -7.41 54.21 75.48
 229 2 -7.33 54.55 74.53
 230 5 -8.76 54.32 75.98
 231 6 -8.75 54.66 77.02
 232 7 -9.43 55.48 75.21
 233 8 -9.59 55.14 74.19
 234 9 -10.39 55.73 75.65
 235 107 -8.58 56.63 75.23
 236 21 -9.07 57.37 74.87
 237 15 -9.61 53.05 76
 238 16 -10.73 53.07 76.46
 239 1 -9.14 51.95 75.36
 240 2 -8.19 51.98 75.02
 241 5 -9.72 50.61 75.44
 242 6 -10.81 50.67 75.41
 243 7 -9.19 49.73 74.33
 244 8 -8.11 49.65 74.4
 245 9 -9.69 48.76 74.45
 246 10 -9.5 50.26 73.01
 247 11 -10.31 51.2 72.81
 248 12 -8.83 49.76 71.97
 249 13 -8.98 50.2 71.07
 250 14 -8.06 49.15 72.2
 251 15 -9.5 50 76.82
 252 16 -8.7 50.44 77.65
 253 1 -10.39 49.11 77.21
 254 108 -11.12 48.83 76.57
 255 109 -10.47 48.76 78.16
ITEM: TIMESTEP
2
ITEM: NUMBER OF ATOMS
255
ITEM: BOX BOUNDS pp pp pp
-33.771 46.401
2.271 82.949
37.521 117.899
ITEM: ATOMS id type xu yu zu
 1 1 10.79 37.9 74.17
 2 2 11.09 37.16 73.54
 3 3 10.61 38.64 73.51
 4 4 9.95 37.71 74.7
 5 5 11.87 38.18 75.16
 6 6 11.76 39.2 75.54
 7 7 11.91 37.14 76.31
 8 8 12.28 36.26 75.79
 9 9 12.61 37.38 77.11
 10 10 10.59 36.66 76.82
 11 11 9.53 36.8 76.22
 12 12 10.53 36 77.94
 13 13 9.68 35.65 78.37
 14 14 11.4 35.68 78.34
 15 15 13.23 38.21 74.54
 16 16 13.49 37.51 73.57
 17 1 14.22 38.94 75.08
 18 2 14.03 39.53 75.88
 19 5 15.59 39.03 74.53
 20 17 16.01 39.92 75
 21 18 16.16 38.12 74.73
 22 15 15.7 39.48 73.01
 23 16 15.23 40.54 72.66
 24 1 16.3 38.66 72.16
 25 2 16.57 37.73 72.46
 26 5 16.38 38.87 70.71
 27 6 16.91 39.81 70.56
 28 7 17.15 37.69 70.07
 29 8 17.54 37.94 69.08
 30 9 18.03 37.46 70.67
 31 10 16.42 36.39 69.89
 32 11 16.56 35.79 68.82
 33 19 15.71 35.99 70.81
 34 15 14.89 38.98 70.16
 35 16 14.5 39.85 69.37
 36 1 13.93 38.23 70.7
 37 2 14.32 37.57 71.36
 38 5 12.44 38.3 70.32
 39 6 12.3 38.26 69.24
 40 7 11.76 37.02 70.67
 41 8 11.85 36.83 71.74
 42 9 10.72 37.11 70.37
 43 20 12.6 35.64 69.79
 44 21 13.83 35.94 70.2
 45 15 11.67 39.53 70.93
 46 16 10.67 39.3 71.55
 47 1 12.14 40.78 70.85
 48 2 12.98 40.96 70.31
 49 5 11.72 41.93 71.74
 50 6 12.33 42.78 71.42
 51 7 10.35 42.43 71.33
 52 8 9.55 41.8 71.73
 53 9 10.29 43.42 71.78
 54 10 10.01 42.5 69.82
 55 22 8.76 42.05 69.35
 56 23 8.02 41.71 70.06
 57 24 8.28 42.25 68.04
 58 25 7.3 41.89 67.78
 59 26 9.11 42.94 67.13
 60 27 8.74 43.14 66.14
 61 28 10.41 43.41 67.57
 62 29 11.11 43.9 66.92
 63 30 10.88 43.19 68.88
 64 31 11.81 43.56 69.28
 65 15 11.98 41.8 73.21
 66 16 11.54 40.77 73.82
 67 1 12.6 42.81 73.86
 68 2 12.82 43.59 73.26
 69 5 12.77 42.93 75.34
 70 6 13.01 41.97 75.79
 71 7 13.83 43.97 75.71
 72 32 13.46 44.85 75.19
 73 33 13.74 44.29 77.26
 74 34 13.05 45.1 77.48
 75 35 13.52 43.37 77.8
 76 36 14.66 44.71 77.66
 77 37 15.29 43.56 75.33
 78 38 15.92 44.18 75.96
 79 39 15.55 42.53 75.59
 80 22 15.73 43.68 73.86
 81 40 15.23 42.98 73.19
 82 41 15.58 44.69 73.47
 83 42 16.79 43.45 73.71
 84 15 11.44 43.3 76
 85 16 10.73 44.23 75.65
 86 1 10.98 42.62 77.04
 87 2 11.52 41.81 77.35
 88 5 9.82 43.03 77.85
 89 6 9.02 43.1 77.12
 90 7 9.42 41.89 78.86
 91 8 9.5 40.96 78.3
 92 9 10.05 41.9 79.75
 93 10 7.95 41.99 79.3
 94 21 7.79 43.04 79.55
 95 22 7.61 41.29 80.61
 96 40 8.16 41.73 81.44
 97 41 6.57 41.54 80.82
 98 42 7.85 40.22 80.6
 99 30 6.95 41.69 78.19
 100 13 5.93 41.86 78.52
 101 14 6.96 42.43 77.38
 102 43 6.83 40.64 77.92
 103 15 10.04 44.4 78.59
 104 16 11.04 44.54 79.26
 105 44 9.17 45.5 78.57
 106 45 7.83 45.52 78
 107 46 6.91 45.98 79.07
 108 47 7.2 47.27 79.89
 109 48 6.21 47.26 80.98
 110 49 5.92 48.62 81.81
 111 50 5.63 49.66 80.81
 112 51 6.98 48.76 82.85
 113 52 4.38 48.25 82.64
 114 53 4.25 47.08 83.4
 115 54 3 46.7 83.84
 116 55 1.83 47.44 83.51
 117 56 1.98 48.59 82.71
 118 57 3.25 49.04 82.31
 119 58 3.26 49.87 81.61
 120 59 1.13 49.17 82.36
 121 60 0.49 46.91 84
 122 61 0.17 46.02 83.46
 123 62 -0.28 47.68 83.97
 124 63 0.52 46.72 85.07
 125 64 2.83 45.77 84.36
 126 65 5.12 46.47 83.55
 127 66 6.44 46.58 81.69
 128 67 7.09 48.17 79.29
 129 68 6.66 45.19 79.79
 130 69 6.04 46.27 78.49
 131 70 7.74 46.26 77.2
 132 71 7.56 44.55 77.59
 133 72 9.55 46.85 79.12
 134 73 10.6 46.81 79.41
 135 3 9.29 47.55 78.32
 136 74 8.67 47.12 80.37
 137 75 8.69 46.22 80.98
 138 76 9.14 48.38 81.1
 139 77 9.51 49.63 80.34
 140 78 10.29 50.45 81.39
 141 79 10.65 49.45 82.51
 142 80 11.67 49.47 82.9
 143 81 9.98 49.6 83.36
 144 82 9.72 51.32 81.73
 145 83 11.21 50.81 80.93
 146 84 8.61 50.14 80.02
 147 85 10.15 49.41 79.49
 148 86 10.31 48.11 81.91
 149 87 11.17 47.74 81.34
 150 88 10.04 47.07 83
 151 89 10.8 46.12 83.12
 152 1 8.93 47.2 83.78
 153 2 8.38 48.03 83.65
 154 5 8.38 46.06 84.68
 155 6 9.19 45.52 85.17
 156 7 7.56 46.74 85.7
 157 8 8.12 47.6 86.07
 158 9 6.68 47.14 85.19
 159 10 7.08 45.9 86.84
 160 90 7.79 44.82 87.4
 161 24 7 44.39 88.37
 162 25 7.32 43.66 89.11
 163 91 5.82 45.05 88.44
 164 29 5.26 45.08 89.28
 165 30 5.92 46.04 87.51
 166 31 5.14 46.78 87.39
 167 15 7.63 45.02 83.94
 168 16 7.23 45.24 82.78
 169 1 7.45 43.87 84.61
 170 2 7.66 43.86 85.59
 171 5 6.64 42.69 84.25
 172 6 7.25 42.15 83.52
 173 7 6.4 41.8 85.53
 174 8 5.8 42.3 86.28
 175 9 5.76 40.95 85.29
 176 10 7.63 41.29 86.26
 177 92 8.21 40.67 85.57
 178 93 8.28 42.13 86.52
 179 94 7.26 40.55 87.5
 180 95 6.17 40.61 88
 181 91 8.1 39.77 88.07
 182 96 7.74 39.29 88.88
 183 97 9.01 39.54 87.7
 184 15 5.32 43.13 83.61
 185 16 4.62 44.02 84.18
 186 1 4.97 42.47 82.54
 187 2 5.58 41.72 82.25
 188 5 3.85 42.88 81.66
 189 6 3.1 43.22 82.37
 190 7 4.29 44.04 80.8
 191 8 4.41 44.89 81.47
 192 9 5.22 43.74 80.33
 193 10 3.36 44.62 79.77
 194 22 2.71 45.76 79.98
 195 23 2.82 46.48 80.78
 196 98 2.03 46.04 78.8
 197 25 1.55 46.92 78.72
 198 28 2.09 45.06 77.89
 199 99 1.49 44.85 76.67
 200 100 0.85 45.6 76.24
 201 101 1.72 43.71 75.92
 202 102 1.27 43.71 74.94
 203 103 2.53 42.71 76.45
 204 104 2.65 41.81 75.86
 205 105 3.1 42.9 77.69
 206 106 3.66 42.11 78.17
 207 30 2.96 44.08 78.46
 208 15 3.23 41.71 80.89
 209 16 3.99 40.82 80.51
 210 1 1.91 41.73 80.59
 211 2 1.37 42.56 80.78
 212 5 1.14 40.64 80.01
 213 6 1.82 39.84 79.72
 214 7 0.22 40.1 81.12
 215 8 0.75 39.91 82.05
 216 9 -0.57 40.84 81.3
 217 20 -0.48 38.49 80.55
 218 21 -1.03 39.08 79.48
 219 15 0.32 41.06 78.78
 220 16 -0.34 42.09 78.69
 221 1 0.52 40.28 77.77
 222 2 1.06 39.45 77.95
 223 5 -0.18 40.35 76.56
 224 17 -0.47 41.38 76.33
 225 18 0.48 40.08 75.73
 226 15 -1.36 39.48 76.42
 227 16 -1.84 38.97 77.44
 228 1 -1.91 39.29 75.18
 229 2 -1.33 39.55 74.39
 230 5 -3.18 38.57 74.92
 231 6 -3.27 37.8 75.68
 232 7 -4.48 39.46 75.1
 233 8 -5.4 38.9 74.91
 234 9 -4.65 39.65 76.16
 235 107 -4.57 40.57 74.3
 236 21 -5.28 41.08 74.69
 237 15 -3.3 37.79 73.63
 238 16 -4.16 36.89 73.52
 239 1 -2.54 38.06 72.55
 240 2 -1.77 38.71 72.65
 241 5 -2.55 37.28 71.29
 242 6 -3.55 37.35 70.85
 243 7 -1.42 37.88 70.39
 244 8 -1.49 38.97 70.45
 245 9 -0.45 37.59 70.79
 246 10 -1.56 37.29 68.98
 247 11 -1.06 36.21 68.59
 248 12 -2.15 38.07 68.1
 249 13 -2.21 37.69 67.17
 250 14 -2.58 38.94 68.36
 251 15 -2.3 35.75 71.42
 252 16 -1.46 35.38 72.2
 253 1 -3.04 34.9 70.65
 254 108 -3.77 35.31 70.09
 255 109 -2.88 33.9 70.62
ITEM: TIMESTEP
3
ITEM: NUMBER OF ATOMS
255
ITEM: BOX BOUNDS pp pp pp
-21.481 58.691
6.286 86.964
38.091 118.469
ITEM: ATOMS id type xu yu zu
 1 1 30.53 48.61 74.63
 2 2 30.3 47.74 74.17
 3 3 31.51 48.72 74.84
 4 4 30.24 49.46 74.17
 5 5 29.9 48.61 75.96
 6 6 28.82 48.68 75.91
 7 7 30.13 47.34 76.78
 8 8 31.21 47.21 76.84
 9 9 29.66 47.52 77.75
 10 10 29.38 46.14 76.22
 11 11 28.86 46.25 75.08
 12 12 29.14 45.15 77.02
 13 13 28.61 44.34 76.72
 14 14 29.76 44.95 77.79
 15 15 30.39 49.85 76.68
 16 16 31.32 50.52 76.21
 17 1 29.79 50.23 77.85
 18 2 28.86 49.91 78.06
 19 5 30.13 51.33 78.64
 20 17 29.74 51.19 79.65
 21 18 31.22 51.4 78.72
 22 15 29.66 52.69 78.24
 23 16 30.05 53.7 78.74
 24 1 28.75 52.81 77.28
 25 2 28.71 51.97 76.72
 26 5 28.06 53.99 76.64
 27 6 28.4 54.9 77.14
 28 7 28.63 54.07 75.24
 29 8 28.14 53.45 74.49
 30 9 28.35 55.07 74.9
 31 10 30.14 53.93 75.05
 32 11 30.91 54.24 75.93
 33 19 30.55 53.7 73.9
 34 15 26.57 53.87 76.52
 35 16 25.96 54.79 75.94
 36 1 25.89 52.86 77.09
 37 2 26.43 52.15 77.56
 38 5 24.38 52.76 77
 39 6 24 52.9 75.99
 40 7 23.92 51.31 77.35
 41 8 22.83 51.35 77.33
 42 9 24.27 50.6 76.6
 43 20 24.6 50.86 78.93
 44 21 24.01 49.7 79.24
 45 15 23.57 53.78 77.79
 46 16 22.42 53.97 77.61
 47 1 24.23 54.47 78.72
 48 2 25.2 54.24 78.87
 49 5 23.77 55.58 79.6
 50 6 24.65 55.7 80.23
 51 7 23.52 56.8 78.7
 52 8 24.48 57.13 78.3
 53 9 22.9 56.56 77.85
 54 10 22.93 58.07 79.37
 55 22 23.48 58.53 80.54
 56 23 24.27 57.89 80.9
 57 24 22.78 59.57 81.25
 58 25 23.11 59.86 82.24
 59 26 21.65 60.16 80.71
 60 27 21.11 60.93 81.23
 61 28 21.26 59.85 79.44
 62 29 20.5 60.4 78.91
 63 30 21.88 58.8 78.79
 64 31 21.44 58.37 77.9
 65 15 22.48 55.39 80.48
 66 16 22.45 55.56 81.68
 67 1 21.4 54.9 79.9
 68 2 21.51 54.76 78.91
 69 5 20.15 54.59 80.6
 70 6 20.35 54.47 81.67
 71 7 19.1 55.8 80.46
 72 32 19.07 56.07 79.41
 73 33 17.67 55.61 80.98
 74 34 17.18 54.65 80.86
 75 35 17.59 56 82
 76 36 17.13 56.38 80.42
 77 37 19.65 57.05 81.27
 78 38 19.76 56.76 82.31
 79 39 20.59 57.3 80.77
 80 22 18.83 58.36 81.34
 81 40 17.87 58.12 81.78
 82 41 19.4 59.22 81.68
 83 42 18.77 58.58 80.27
 84 15 19.58 53.24 80.11
 85 16 19.36 53.01 78.96
 86 1 19.47 52.3 81.05
 87 2 19.63 52.54 82.02
 88 5 18.97 50.93 80.8
 89 6 18.16 51.04 80.08
 90 7 20.19 50.19 80.22
 91 8 20.62 50.73 79.38
 92 9 20.86 50.07 81.07
 93 10 19.85 48.82 79.6
 94 21 19.29 48.21 80.31
 95 22 21.16 48.09 79.26
 96 40 21.83 48.67 78.62
 97 41 21.71 47.89 80.18
 98 42 20.96 47.11 78.84
 99 30 19.06 48.9 78.27
 100 13 18.06 49.2 78.6
 101 14 19.61 49.62 77.67
 102 43 18.96 47.95 77.74
 103 15 18.41 50.23 82.09
 104 16 18.73 49.05 82.37
 105 44 17.5 50.93 82.9
 106 45 16.71 51.99 82.37
 107 46 15.18 51.71 82.51
 108 47 14.82 51.2 83.92
 109 48 13.4 50.86 83.95
 110 49 12.25 51.72 84.64
 111 50 12.65 51.89 86.02
 112 51 11.04 50.95 84.29
 113 52 12.35 53.22 83.73
 114 53 11.64 53.24 82.51
 115 54 11.78 54.34 81.65
 116 55 12.64 55.44 82.07
 117 56 13.36 55.34 83.33
 118 57 13.21 54.21 84.18
 119 58 13.79 54.12 85.09
 120 59 14.08 56.05 83.68
 121 60 12.84 56.62 81.16
 122 61 12.13 57.42 81.37
 123 62 12.66 56.25 80.15
 124 63 13.87 56.97 81.17
 125 64 11.15 54.35 80.77
 126 65 10.98 52.4 82.3
 127 66 13.29 50.13 84.63
 128 67 15.07 51.98 84.63
 129 68 14.89 50.99 81.74
 130 69 14.66 52.66 82.37
 131 70 16.96 52.94 82.85
 132 71 16.92 52.21 81.33
 133 72 17.13 50.47 84.33
 134 73 17.81 49.71 84.7
 135 3 17.25 51.33 84.99
 136 74 15.68 49.96 84.33
 137 75 15.63 49.2 83.55
 138 76 15.3 49.2 85.56
 139 77 15.46 49.93 86.84
 140 78 15.06 48.99 87.96
 141 79 15.65 47.62 87.44
 142 80 16.56 47.29 87.94
 143 81 14.83 46.9 87.51
 144 82 13.97 48.97 88
 145 83 15.43 49.34 88.92
 146 84 14.91 50.87 86.86
 147 85 16.5 50.23 86.98
 148 86 15.92 47.93 85.99
 149 87 17 47.93 85.81
 150 88 15.51 46.72 85.11
 151 89 16.32 45.87 84.81
 152 1 14.19 46.66 84.8
 153 2 13.67 47.52 84.97
 154 5 13.62 45.73 83.8
 155 6 14.11 44.8 84.11
 156 7 12.16 45.62 83.9
 157 8 11.97 45.31 84.93
 158 9 11.7 46.6 83.74
 159 10 11.49 44.81 82.83
 160 90 11.72 43.45 82.66
 161 24 10.94 43.13 81.59
 162 25 10.85 42.11 81.26
 163 91 10.21 44.12 81.14
 164 29 9.54 44.18 80.39
 165 30 10.57 45.21 81.89
 166 31 10.34 46.27 81.83
 167 15 14.07 45.99 82.37
 168 16 14 47.16 81.98
 169 1 14.56 44.88 81.73
 170 2 14.44 44.04 82.27
 171 5 14.77 44.71 80.24
 172 6 14.39 45.57 79.68
 173 7 16.26 44.84 79.9
 174 8 16.53 44.81 78.84
 175 9 16.62 45.84 80.12
 176 10 17.19 43.81 80.51
 177 92 17.23 44.04 81.57
 178 93 16.95 42.76 80.34
 179 94 18.64 44.07 79.96
 180 95 19.03 43.47 78.94
 181 91 19.48 44.92 80.52
 182 96 20.46 44.9 80.28
 183 97 19.13 45.47 81.29
 184 15 14.14 43.44 79.69
 185 16 13.88 42.48 80.42
 186 1 13.92 43.36 78.38
 187 2 14.24 44.15 77.85
 188 5 13.38 42.17 77.66
 189 6 13.15 41.45 78.45
 190 7 12.04 42.46 77.02
 191 8 11.53 43.11 77.73
 192 9 12.22 42.96 76.06
 193 10 11.33 41.25 76.59
 194 22 10.43 40.63 77.34
 195 23 10.13 40.85 78.36
 196 98 9.94 39.58 76.62
 197 25 9.18 39.06 77.02
 198 28 10.35 39.53 75.3
 199 99 10.01 38.75 74.18
 200 100 9.33 37.91 74.24
 201 101 10.78 39.05 73.04
 202 102 10.54 38.4 72.21
 203 103 11.77 40.03 73.03
 204 104 12.38 40.22 72.16
 205 105 12.02 40.86 74.13
 206 106 12.85 41.54 74.15
 207 30 11.34 40.57 75.32
 208 15 14.3 41.34 76.7
 209 16 15.03 41.87 75.85
 210 1 14.07 40.05 76.73
 211 2 13.39 39.62 77.34
 212 5 14.64 39.1 75.78
 213 6 14.47 39.53 74.79
 214 7 16.13 38.84 76.21
 215 8 16.74 39.69 75.91
 216 9 16.15 38.75 77.3
 217 20 16.81 37.4 75.35
 218 21 16.8 38 74.15
 219 15 13.87 37.79 75.72
 220 16 13.43 37.38 76.84
 221 1 13.53 37.2 74.59
 222 2 13.73 37.69 73.73
 223 5 12.79 35.95 74.44
 224 17 13.4 35.08 74.67
 225 18 11.95 36.03 75.13
 226 15 12.31 35.78 73.01
 227 16 12.53 36.6 72.11
 228 1 11.63 34.65 72.77
 229 2 11.58 33.96 73.51
 230 5 10.78 34.43 71.62
 231 6 11.32 34.83 70.76
 232 7 10.38 32.98 71.35
 233 8 11.2 32.32 71.64
 234 9 9.53 32.71 71.98
 235 107 10.07 32.79 70.01
 236 21 10.86 32.7 69.46
 237 15 9.55 35.28 71.71
 238 16 9.28 35.73 72.83
 239 1 8.9 35.64 70.59
 240 2 9.34 35.46 69.7
 241 5 7.63 36.36 70.54
 242 6 7.05 36.12 71.43
 243 7 7.84 37.91 70.6
 244 8 6.84 38.34 70.6
 245 9 8.37 38.32 71.46
 246 10 8.56 38.38 69.4
 247 11 9.82 38.38 69.39
 248 12 7.93 38.89 68.32
 249 13 8.47 39.42 67.64
 250 14 6.94 38.91 68.15
 251 15 6.64 36.09 69.44
 252 16 5.7 36.8 69.22
 253 1 6.87 35.04 68.72
 254 108 7.45 34.29 69.06
 255 109 6.21 34.77 68
ITEM: TIMESTEP
4
ITEM: NUMBER OF ATOMS
255
ITEM: BOX BOUNDS pp pp pp
-17.281 62.891
-2.004 78.674
-40.034 40.344
ITEM: ATOMS id type xu yu zu
 1 1 23.32 34.48 -9.39
 2 2 23.27 35.16 -10.13
 3 3 22.6 34.76 -8.73
 4 4 23.01 33.58 -9.74
 5 5 24.68 34.31 -8.87
 6 6 24.86 35.15 -8.2
 7 7 24.83 33.03 -8.01
 8 8 24.78 32.15 -8.66
 9 9 25.8 32.89 -7.54
 10 10 23.83 32.96 -6.86
 11 11 23.43 34 -6.36
 12 12 23.31 31.83 -6.52
 13 13 22.62 31.85 -5.78
 14 14 23.5 30.93 -6.94
 15 15 25.67 34.36 -10.03
 16 16 25.4 33.76 -11.11
 17 1 26.73 35.22 -9.86
 18 2 26.91 35.52 -8.92
 19 5 27.75 35.23 -10.85
 20 17 27.27 35.24 -11.82
 21 18 28.29 36.17 -10.85
 22 15 28.69 34.07 -10.87
 23 16 28.61 33.05 -10.14
 24 1 29.67 34.2 -11.79
 25 2 29.68 35.02 -12.38
 26 5 30.6 33.1 -12.23
 27 6 30.1 32.21 -12.6
 28 7 31.43 33.56 -13.41
 29 8 32.06 32.7 -13.63
 30 9 30.79 33.77 -14.27
 31 10 32.3 34.82 -13.3
 32 11 32.17 35.61 -12.36
 33 19 33.25 35.03 -14.08
 34 15 31.46 32.5 -11.06
 35 16 31.69 31.31 -11.01
 36 1 31.87 33.37 -10.14
 37 2 31.61 34.32 -10.38
 38 5 32.71 33.12 -8.96
 39 6 33.48 32.39 -9.2
 40 7 33.43 34.41 -8.53
 41 8 32.7 35.21 -8.49
 42 9 33.88 34.29 -7.55
 43 20 34.72 34.66 -9.82
 44 21 34.15 35.6 -10.58
 45 15 31.82 32.52 -7.77
 46 16 32.38 32.15 -6.81
 47 1 30.48 32.68 -7.88
 48 2 30.04 32.95 -8.75
 49 5 29.45 32.42 -6.87
 50 6 28.55 32.95 -7.15
 51 7 29.12 30.93 -6.76
 52 8 28.65 30.73 -7.72
 53 9 30.08 30.42 -6.72
 54 10 28.2 30.49 -5.6
 55 22 27.26 31.34 -5.02
 56 23 27.22 32.37 -5.32
 57 24 26.33 30.82 -4.06
 58 25 25.59 31.5 -3.67
 59 26 26.38 29.46 -3.67
 60 27 25.67 29.11 -2.93
 61 28 27.35 28.62 -4.25
 62 29 27.4 27.57 -4.01
 63 30 28.35 29.16 -5.12
 64 31 29.12 28.54 -5.54
 65 15 29.91 33.15 -5.57
 66 16 29.97 32.55 -4.49
 67 1 30.09 34.46 -5.65
 68 2 29.96 34.88 -6.55
 69 5 30.34 35.36 -4.47
 70 6 30.78 34.7 -3.73
 71 7 31.51 36.31 -4.77
 72 32 31.38 36.91 -5.68
 73 33 31.73 37.29 -3.58
 74 34 31.9 36.79 -2.63
 75 35 32.57 37.94 -3.8
 76 36 30.82 37.88 -3.52
 77 37 32.86 35.51 -4.87
 78 38 33.15 35.08 -3.91
 79 39 32.72 34.57 -5.4
 80 22 34.04 36.28 -5.51
 81 40 34.86 35.57 -5.61
 82 41 33.79 36.52 -6.55
 83 42 34.29 37.14 -4.89
 84 15 29.11 36.1 -3.98
 85 16 28.41 36.66 -4.82
 86 1 28.85 36.17 -2.64
 87 2 29.6 35.92 -2.01
 88 5 27.69 36.8 -2.06
 89 6 26.9 36.67 -2.8
 90 7 27.23 36.07 -0.81
 91 8 27.88 36.25 0.05
 92 9 26.24 36.46 -0.56
 93 10 27.03 34.52 -0.95
 94 21 27.99 34.07 -1.19
 95 22 26.15 34.21 -2.14
 96 40 26.13 33.12 -2.14
 97 41 25.19 34.65 -1.87
 98 42 26.58 34.53 -3.09
 99 30 26.4 33.9 0.35
 100 13 25.36 34.19 0.46
 101 14 26.39 32.81 0.26
 102 43 26.93 34.18 1.26
 103 15 27.78 38.36 -1.81
 104 16 28.86 38.76 -1.5
 105 44 26.67 39.14 -1.9
 106 45 25.28 38.73 -2.14
 107 46 24.44 38.85 -0.88
 108 47 24.51 40.37 -0.49
 109 48 23.71 40.51 0.76
 110 49 22.19 41.11 0.73
 111 50 21.37 40.03 1.27
 112 51 21.97 41.81 -0.52
 113 52 22.51 42.32 1.91
 114 53 22.77 42.01 3.26
 115 54 23.32 42.89 4.2
 116 55 23.41 44.27 3.84
 117 56 23.12 44.62 2.49
 118 57 22.63 43.69 1.53
 119 58 22.37 44.02 0.53
 120 59 23.35 45.62 2.14
 121 60 23.94 45.32 4.84
 122 61 24.07 44.85 5.81
 123 62 23.11 46.01 5.04
 124 63 24.77 45.94 4.52
 125 64 23.58 42.55 5.18
 126 65 22.71 41 3.64
 127 66 24.02 41.37 1.19
 128 67 24.08 40.9 -1.33
 129 68 24.83 38.19 -0.1
 130 69 23.42 38.49 -0.99
 131 70 24.86 39.31 -2.96
 132 71 25.1 37.71 -2.5
 133 72 26.69 40.54 -1.6
 134 73 27.71 40.92 -1.63
 135 3 26.15 41 -2.43
 136 74 25.97 40.9 -0.31
 137 75 26.55 40.33 0.41
 138 76 25.88 42.36 0.18
 139 77 25.53 43.41 -0.9
 140 78 26.04 44.77 -0.45
 141 79 26.96 44.46 0.75
 142 80 27.89 45.03 0.81
 143 81 26.43 44.68 1.67
 144 82 25.18 45.4 -0.22