ITEM: TIMESTEP
0
ITEM: NUMBER OF ATOMS
255
ITEM: BOX BOUNDS pp pp pp
-40.116 40.056
11.136 91.814
36.816 117.194
ITEM: ATOMS id type xu yu zu
 1 1 -1.1 48.5 78.96
 2 2 -0.54 47.84 78.45
 3 3 -1.07 49.37 78.45
 4 4 -2.05 48.16 79.06
 5 5 -0.45 48.69 80.27
 6 6 0.62 48.74 80.06
 7 7 -1.02 49.82 81.12
 8 8 -2.01 49.6 81.53
 9 9 -0.41 49.78 82.02
 10 10 -1 51.19 80.48
 11 11 -0.7 51.32 79.28
 12 12 -1.01 52.22 81.26
 13 13 -0.77 53.12 80.88
 14 14 -1.13 52.13 82.26
 15 15 -0.77 47.52 81.1
 16 16 -1.85 46.91 80.94
 17 1 0 47.18 82.12
 18 2 0.67 47.89 82.38
 19 5 -0.23 46.03 83.07
 20 17 0.6 45.97 83.77
 21 18 -1.14 46.19 83.64
 22 15 -0.43 44.66 82.36
 23 16 0.39 44.35 81.43
 24 1 -1.45 43.92 82.83
 25 2 -2.04 44.45 83.46
 26 5 -1.95 42.63 82.33
 27 6 -1.01 42.08 82.31
 28 7 -2.79 41.86 83.35
 29 8 -2.76 40.81 83.03
 30 9 -2.17 41.84 84.24
 31 10 -4.17 42.49 83.46
 32 11 -5.06 41.83 84.05
 33 19 -4.39 43.63 82.92
 34 15 -2.48 42.53 80.86
 35 16 -2.78 41.42 80.42
 36 1 -2.54 43.65 80.16
 37 2 -2.33 44.47 80.7
 38 5 -3.02 43.77 78.72
 39 6 -2.84 42.78 78.32
 40 7 -4.52 44.22 78.73
 41 8 -5.13 43.47 79.23
 42 9 -4.55 45.22 79.17
 43 20 -4.92 44.24 76.96
 44 21 -4.2 43.18 76.58
 45 15 -2.01 44.73 78.19
 46 16 -2.23 45.95 77.93
 47 1 -0.92 44.08 77.85
 48 2 -0.89 43.12 78.18
 49 5 0.31 44.55 77.24
 50 6 0.88 43.64 77.08
 51 7 -0.01 45.27 75.9
 52 8 -0.5 46.22 76.1
 53 9 0.97 45.57 75.52
 54 10 -0.69 44.28 74.97
 55 22 -2.05 44.37 74.57
 56 23 -2.68 45.13 75.02
 57 24 -2.61 43.44 73.61
 58 25 -3.66 43.34 73.38
 59 26 -1.79 42.44 73.02
 60 27 -2.25 41.73 72.36
 61 28 -0.41 42.38 73.34
 62 29 0.21 41.59 72.94
 63 30 0.14 43.31 74.3
 64 31 1.19 43.27 74.56
 65 15 1.13 45.48 78.1
 66 16 0.58 46.46 78.59
 67 1 2.34 45.16 78.49
 68 2 2.71 44.26 78.19
 69 5 3.16 46.15 79.26
 70 6 2.64 46.47 80.16
 71 7 4.53 45.42 79.7
 72 32 5.02 44.98 78.83
 73 33 5.55 46.36 80.4
 74 34 6.42 45.78 80.7
 75 35 6.03 47.02 79.69
 76 36 5.08 46.82 81.27
 77 37 4.2 44.22 80.56
 78 38 3.43 44.6 81.24
 79 39 3.7 43.47 79.95
 80 22 5.39 43.51 81.23
 81 40 6.16 43.25 80.51
 82 41 5.85 44.01 82.08
 83 42 4.98 42.57 81.6
 84 15 3.45 47.37 78.47
 85 16 3.73 47.36 77.27
 86 1 3.55 48.51 79.16
 87 2 3.3 48.45 80.14
 88 5 3.66 49.85 78.62
 89 6 2.9 50.05 77.86
 90 7 3.35 50.96 79.62
 91 8 2.39 50.74 80.1
 92 9 4.08 50.85 80.41
 93 10 3.37 52.46 79.05
 94 21 3.02 52.53 78.02
 95 22 4.72 53.01 79.25
 96 40 5.06 52.97 80.29
 97 41 5.47 52.51 78.64
 98 42 4.79 54.06 78.98
 99 30 2.44 53.33 79.84
 100 13 2.53 53.26 80.93
 101 14 2.67 54.36 79.57
 102 43 1.41 53.05 79.62
 103 15 5.03 49.98 78
 104 16 5.96 50.02 78.76
 105 44 5.33 50.16 76.68
 106 45 4.34 50.13 75.59
 107 46 4.15 51.56 75.27
 108 47 5.42 52.2 74.64
 109 48 5.14 53.54 74.26
 110 49 5.9 54.32 73.05
 111 50 6.11 53.31 72.07
 112 51 6.96 55.06 73.72
 113 52 4.7 55.48 72.56
 114 53 4.17 55.3 71.23
 115 54 3.23 56.16 70.75
 116 55 2.78 57.23 71.57
 117 56 3.3 57.46 72.89
 118 57 4.25 56.57 73.32
 119 58 4.67 56.67 74.31
 120 59 2.91 58.31 73.43
 121 60 1.72 58.07 70.92
 122 61 1.31 57.66 69.99
 123 62 2.26 58.99 70.71
 124 63 0.84 58.33 71.51
 125 64 2.78 56.05 69.77
 126 65 4.39 54.4 70.68
 127 66 5.65 54.09 74.94
 128 67 5.6 51.52 73.82
 129 68 3.96 52.09 76.21
 130 69 3.24 51.7 74.69
 131 70 4.79 49.67 74.71
 132 71 3.43 49.6 75.85
 133 72 6.63 50.53 76.14
 134 73 7.44 50.32 76.84
 135 3 6.8 49.9 75.27
 136 74 6.6 51.97 75.69
 137 75 6.35 52.59 76.55
 138 76 7.87 52.52 75.14
 139 77 8.59 51.74 74.12
 140 78 9.99 52.28 74.09
 141 79 10.3 52.83 75.52
 142 80 11.06 52.2 75.97
 143 81 10.57 53.88 75.41
 144 82 10.12 53.08 73.36
 145 83 10.71 51.54 73.72
 146 84 8.09 52.04 73.2
 147 85 8.66 50.65 74.18
 148 86 8.92 52.76 76.17
 149 87 8.96 51.91 76.85
 150 88 8.57 54.04 77.08
 151 89 8.48 54.02 78.25
 152 1 8.42 55.19 76.39
 153 2 8.25 55.13 75.4
 154 5 7.94 56.49 76.93
 155 6 8.39 56.55 77.92
 156 7 8.43 57.65 76.04
 157 8 9.52 57.7 76.06
 158 9 8.03 57.54 75.04
 159 10 7.95 59.01 76.54
 160 90 7.86 59.39 77.88
 161 24 7.64 60.69 77.94
 162 25 7.44 61.34 78.78
 163 91 7.61 61.17 76.67
 164 29 7.41 62.14 76.48
 165 30 7.74 60.1 75.8
 166 31 7.83 60 74.73
 167 15 6.42 56.37 77.21
 168 16 5.68 55.72 76.49
 169 1 5.99 57.1 78.17
 170 2 6.68 57.68 78.62
 171 5 4.6 57.16 78.6
 172 6 4.49 56.17 79.03
 173 7 4.38 58.17 79.76
 174 8 5.2 57.92 80.43
 175 9 4.37 59.21 79.43
 176 10 3.02 57.87 80.44
 177 92 2.15 58.25 79.89
 178 93 2.98 56.8 80.64
 179 94 3.03 58.59 81.77
 180 95 3.49 59.7 81.86
 181 91 2.47 58.11 82.82
 182 96 2.49 58.62 83.69
 183 97 2.11 57.16 82.84
 184 15 3.51 57.25 77.49
 185 16 3.51 58.14 76.64
 186 1 2.47 56.45 77.58
 187 2 2.55 55.85 78.39
 188 5 1.49 56.16 76.55
 189 6 1.43 56.98 75.83
 190 7 2.03 54.94 75.81
 191 8 2.88 55.32 75.25
 192 9 2.41 54.13 76.42
 193 10 1.17 54.33 74.78
 194 22 1.25 54.58 73.48
 195 23 1.87 55.3 72.98
 196 98 0.34 53.82 72.82
 197 25 -0.02 54.14 71.93
 198 28 -0.46 53.06 73.66
 199 99 -1.66 52.33 73.51
 200 100 -2.13 52.19 72.55
 201 101 -2.34 51.79 74.65
 202 102 -3.28 51.26 74.51
 203 103 -1.74 51.98 75.9
 204 104 -2.24 51.59 76.77
 205 105 -0.57 52.75 76.05
 206 106 -0.07 52.84 77
 207 30 0.08 53.37 74.94
 208 15 0.07 55.94 77.07
 209 16 -0.13 55.54 78.23
 210 1 -1.02 56.26 76.33
 211 2 -0.84 56.62 75.4
 212 5 -2.38 56.21 76.81
 213 6 -2.46 55.69 77.77
 214 7 -2.85 57.63 77.09
 215 8 -2.79 58.18 76.16
 216 9 -3.88 57.48 77.4
 217 20 -1.82 58.43 78.44
 218 21 -1.98 59.67 77.98
 219 15 -3.25 55.47 75.69
 220 16 -3.35 55.87 74.54
 221 1 -3.94 54.42 76.1
 222 2 -3.93 54.19 77.09
 223 5 -5.06 53.91 75.33
 224 17 -5.31 54.59 74.52
 225 18 -4.86 52.98 74.79
 226 15 -6.37 53.85 76.19
 227 16 -6.36 53.36 77.28
 228 1 -7.41 54.21 75.48
 229 2 -7.33 54.55 74.53
 230 5 -8.76 54.32 75.98
 231 6 -8.75 54.66 77.02
 232 7 -9.43 55.48 75.21
 233 8 -9.59 55.14 74.19
 234 9 -10.39 55.73 75.65
 235 107 -8.58 56.63 75.23
 236 21 -9.07 57.37 74.87
 237 15 -9.61 53.05 76
 238 16 -10.73 53.07 76.46
 239 1 -9.14 51.95 75.36
 240 2 -8.19 51.98 75.02
 241 5 -9.72 50.61 75.44
 242 6 -10.81 50.67 75.41
 243 7 -9.19 49.73 74.33
 244 8 -8.11 49.65 74.4
 245 9 -9.69 48.76 74.45
 246 10 -9.5 50.26 73.01
 247 11 -10.31 51.2 72.81
 248 12 -8.83 49.76 71.97
 249 13 -8.98 50.2 71.07
 250 14 -8.06 49.15 72.2
 251 15 -9.5 50 76.82
 252 16 -8.7 50.44 77.65
 253 1 -10.39 49.11 77.21
 254 108 -11.12 48.83 76.57
 255 109 -10.47 48.76 78.16
ITEM: TIMESTEP
1
ITEM: NUMBER OF ATOMS
255
ITEM: BOX BOUNDS pp pp pp
-34.356 45.816
0.215996 80.894
24.676 105.054
ITEM: ATOMS id type xu yu zu
 1 1 6.14 32.5 71.16
 2 2 6.76 32.85 71.88
 3 3 5.64 33.2 70.63
 4 4 6.64 31.99 70.45
 5 5 5.18 31.49 71.76
 6 6 4.51 31.13 70.99
 7 7 5.89 30.19 72.25
 8 8 6.71 30.5 72.89
 9 9 5.27 29.57 72.9
 10 10 6.5 29.4 71.11
 11 11 6.34 29.6 69.92
 12 12 7.35 28.51 71.53
 13 13 7.68 27.88 70.82
 14 14 7.32 28.2 72.49
 15 15 4.34 32.15 72.94
 16 16 4.87 32.98 73.65
 17 1 3.06 31.69 73.06
 18 2 2.77 30.92 72.47
 19 5 2.17 32.11 74.17
 20 17 1.29 31.46 74.23
 21 18 2.78 31.91 75.05
 22 15 1.7 33.62 74.24
 23 16 2.05 34.53 73.51
 24 1 0.84 33.84 75.3
 25 2 0.6 33.04 75.88
 26 5 0.2 35.14 75.67
 27 6 -0.44 35.43 74.84
 28 7 -0.56 35.03 76.99
 29 8 0.08 35.06 77.87
 30 9 -1.16 35.93 77.14
 31 10 -1.47 33.79 77.1
 32 11 -1.02 32.64 76.92
 33 19 -2.7 33.97 77.44
 34 15 1.11 36.39 75.84
 35 16 0.58 37.46 75.66
 36 1 2.4 36.19 76.19
 37 2 2.78 35.28 76.4
 38 5 3.24 37.36 76.41
 39 6 2.69 38.14 76.94
 40 7 4.5 36.9 77.11
 41 8 5.03 36.18 76.49
 42 9 5.17 37.72 77.36
 43 20 4.05 36.09 78.67
 44 21 3.5 37.21 79.17
 45 15 3.7 38.09 75.12
 46 16 3.8 39.36 75.09
 47 1 3.86 37.22 74.11
 48 2 3.67 36.25 74.26
 49 5 4.11 37.63 72.74
 50 6 4.24 36.62 72.35
 51 7 2.84 38.28 72.13
 52 8 1.99 37.93 72.71
 53 9 2.89 39.34 72.38
 54 10 2.64 38.11 70.6
 55 22 2.06 36.98 70.09
 56 23 1.8 36.18 70.76
 57 24 1.89 36.82 68.68
 58 25 1.44 35.93 68.28
 59 26 2.16 37.93 67.82
 60 27 1.85 37.84 66.79
 61 28 2.69 39.11 68.34
 62 29 2.81 40.03 67.79
 63 30 2.97 39.13 69.76
 64 31 3.43 40.03 70.12
 65 15 5.42 38.38 72.41
 66 16 5.5 39.17 71.49
 67 1 6.44 38.16 73.21
 68 2 6.34 37.43 73.91
 69 5 7.73 38.8 73.11
 70 6 7.62 39.86 73.34
 71 7 8.61 38.39 74.32
 72 32 8.85 37.33 74.31
 73 33 9.99 39.04 74.26
 74 34 9.81 40.08 74.02
 75 35 10.61 38.94 75.15
 76 36 10.56 38.63 73.43
 77 37 7.93 38.49 75.7
 78 38 7.36 37.57 75.81
 79 39 8.67 38.49 76.49
 80 22 7.04 39.69 75.97
 81 40 6.81 39.53 77.03
 82 41 7.62 40.58 75.72
 83 42 6.17 39.55 75.33
 84 15 8.49 38.54 71.77
 85 16 8.89 37.4 71.48
 86 1 8.62 39.59 70.98
 87 2 8.22 40.46 71.3
 88 5 9.08 39.73 69.61
 89 6 9.79 38.95 69.36
 90 7 7.92 39.56 68.59
 91 8 6.98 39.99 68.94
 92 9 8.15 40.25 67.78
 93 10 7.65 38.11 68
 94 21 8.57 37.55 68.14
 95 22 7.38 38.3 66.58
 96 40 8.34 38.57 66.13
 97 41 7.05 37.37 66.12
 98 42 6.68 39.09 66.31
 99 30 6.51 37.45 68.69
 100 13 5.55 37.92 68.46
 101 14 6.55 36.38 68.49
 102 43 6.72 37.51 69.75
 103 15 9.79 41.07 69.39
 104 16 9.5 42.04 70.08
 105 44 10.79 41.2 68.42
 106 45 11.08 40.14 67.44
 107 46 10.73 40.59 65.98
 108 47 11.45 41.92 65.64
 109 48 10.9 42.31 64.3
 110 49 11.77 41.99 62.94
 111 50 11.42 40.74 62.33
 112 51 13.15 42.32 63.34
 113 52 11.12 43.41 62.04
 114 53 10.24 43.28 60.87
 115 54 9.93 44.42 60.18
 116 55 10.25 45.72 60.68
 117 56 11.05 45.84 61.79
 118 57 11.57 44.7 62.45
 119 58 12.14 44.84 63.36
 120 59 11.34 46.78 62.23
 121 60 9.62 46.99 60.09
 122 61 8.97 46.74 59.26
 123 62 10.43 47.55 59.62
 124 63 9.16 47.55 60.91
 125 64 9.26 44.39 59.33
 126 65 9.77 42.32 60.72
 127 66 10.98 43.32 64.33
 128 67 12.53 41.77 65.7
 129 68 9.66 40.77 65.87
 130 69 10.97 39.75 65.33
 131 70 12.16 40 67.46
 132 71 10.55 39.23 67.72
 133 72 11.36 42.55 68.04
 134 73 11.15 43.31 68.79
 135 3 12.4 42.21 68.09
 136 74 11.01 43.04 66.59
 137 75 9.93 43.08 66.4
 138 76 11.53 44.32 66.1
 139 77 12.97 44.42 66.17
 140 78 13.21 45.91 65.97
 141 79 11.96 46.74 66.47
 142 80 12.04 47.45 67.29
 143 81 11.43 47.19 65.63
 144 82 13.48 46.02 64.92
 145 83 14.16 46.07 66.46
 146 84 13.51 43.81 65.44
 147 85 13.3 44.11 67.16
 148 86 11.09 45.53 66.88
 149 87 11.32 45.31 67.93
 150 88 9.59 45.78 66.7
 151 89 8.81 45.62 67.63
 152 1 9.14 46.1 65.47
 153 2 9.85 46.4 64.82
 154 5 7.72 46.1 65.03
 155 6 7.16 46.6 65.82
 156 7 7.63 46.87 63.69
 157 8 7.95 47.89 63.89
 158 9 8.25 46.26 63.03
 159 10 6.25 46.93 63.08
 160 90 5.15 47.61 63.61
 161 24 4.18 47.5 62.69
 162 25 3.23 47.99 62.78
 163 91 4.6 46.69 61.66
 164 29 4.13 46.65 60.77
 165 30 5.88 46.37 61.91
 166 31 6.54 45.8 61.29
 167 15 7.26 44.64 64.94
 168 16 7.73 43.89 64.15
 169 1 6.26 44.27 65.81
 170 2 5.86 44.96 66.42
 171 5 5.82 42.89 65.81
 172 6 6.59 42.22 65.44
 173 7 5.57 42.41 67.24
 174 8 5.47 41.32 67.2
 175 9 6.47 42.6 67.82
 176 10 4.3 42.87 67.89
 177 92 4.09 43.89 67.56
 178 93 3.48 42.2 67.62
 179 94 4.35 43.06 69.4
 180 95 5.45 43.24 69.96
 181 91 3.29 43.02 70.14
 182 96 3.41 43.01 71.14
 183 97 2.36 43.11 69.76
 184 15 4.65 42.62 64.85
 185 16 4.19 41.52 64.67
 186 1 4.14 43.67 64.23
 187 2 4.53 44.59 64.34
 188 5 3.1 43.5 63.23
 189 6 2.61 42.56 63.48
 190 7 2.02 44.61 63.37
 191 8 2.22 45.5 62.78
 192 9 1.1 44.19 62.97
 193 10 1.73 45.05 64.78
 194 22 2.05 46.27 65.3
 195 23 2.64 47.01 64.78
 196 98 1.68 46.31 66.66
 197 25 1.96 46.95 67.39
 198 28 1.13 45.07 67.05
 199 99 0.67 44.54 68.28
 200 100 0.76 45.16 69.16
 201 101 0.24 43.18 68.27
 202 102 0.05 42.75 69.24
 203 103 0.14 42.44 67.1
 204 104 -0.32 41.46 67.12
 205 105 0.5 43.02 65.91
 206 106 0.43 42.5 64.97
 207 30 1.07 44.31 65.86
 208 15 3.64 43.39 61.83
 209 16 4.85 43.44 61.54
 210 1 2.75 43.16 60.92
 211 2 1.8 42.99 61.24
 212 5 3.06 42.77 59.52
 213 6 3.97 42.18 59.41
 214 7 1.86 41.95 58.9
 215 8 0.94 42.52 58.95
 216 9 2 41.64 57.86
 217 20 1.71 40.43 59.8
 218 21 2.86 39.8 59.6
 219 15 3.36 44.04 58.76
 220 16 3.02 45.13 59.13
 221 1 3.81 43.93 57.48
 222 2 3.93 42.96 57.21
 223 5 4.25 44.96 56.55
 224 17 4.25 44.38 55.63
 225 18 3.51 45.76 56.64
 226 15 5.62 45.7 56.88
 227 16 5.89 45.89 58.07
 228 1 6.21 46.21 55.82
 229 2 5.88 46.09 54.87
 230 5 7.52 46.95 55.93
 231 6 7.56 47.27 56.98
 232 7 8.65 45.89 55.83
 233 8 9.59 46.43 55.93
 234 9 8.62 45.21 56.68
 235 107 8.66 45.08 54.62
 236 21 8.03 44.36 54.74
 237 15 7.6 48 54.78
 238 16 6.97 47.84 53.73
 239 1 8.53 48.94 54.85
 240 2 8.88 49.16 55.77
 241 5 8.77 50.03 53.89
 242 6 7.77 50.41 53.67
 243 7 9.59 51.11 54.64
 244 8 10.41 50.72 55.25
 245 9 10.15 51.72 53.93
 246 10 8.88 52.18 55.5
 247 11 8.45 53.23 54.99
 248 12 8.54 51.82 56.68
 249 13 8.19 52.53 57.3
 250 14 8.91 50.93 56.97
 251 15 9.49 49.53 52.56
 252 16 10.52 48.83 52.58
 253 1 9.06 50.09 51.41
 254 108 8.1 50.42 51.38
 255 109 9.58 50.01 50.56
ITEM: TIMESTEP
2
ITEM: NUMBER OF ATOMS
255
ITEM: BOX BOUNDS pp pp pp
30.719 110.891
-0.779003 79.899
29.726 110.104
ITEM: ATOMS id type xu yu zu
 1 1 69.64 36.21 65.17
 2 2 70.08 37.02 65.58
 3 3 69.49 35.49 65.85
 4 4 68.7 36.51 64.94
 5 5 70.43 35.78 63.96
 6 6 70.33 36.6 63.25
 7 7 71.93 35.63 64.23
 8 8 72.21 34.73 64.77
 9 9 72.48 35.44 63.3
 10 10 72.61 36.78 65.03
 11 11 71.92 37.47 65.76
 12 12 73.9 36.99 64.89
 13 13 74.35 37.62 65.55
 14 14 74.45 36.44 64.25
 15 15 69.9 34.42 63.49
 16 16 69.74 33.55 64.3
 17 1 69.59 34.24 62.2
 18 2 69.76 35.04 61.6
 19 5 69.17 32.92 61.62
 20 17 69.26 32.93 60.54
 21 18 69.72 32.06 62
 22 15 67.7 32.64 61.9
 23 16 66.94 33.46 62.41
 24 1 67.26 31.4 61.75
 25 2 67.91 30.73 61.36
 26 5 65.81 30.98 61.65
 27 6 65.2 31.73 61.15
 28 7 65.59 29.82 60.6
 29 8 64.54 29.78 60.29
 30 9 66.15 30.11 59.71
 31 10 66.12 28.44 61.13
 32 11 65.7 27.38 60.53
 33 19 66.98 28.4 62.02
 34 15 65.06 30.69 62.93
 35 16 63.85 30.79 62.91
 36 1 65.77 30.28 64.01
 37 2 66.77 30.27 63.85
 38 5 65.34 30.04 65.36
 39 6 64.32 29.66 65.3
 40 7 66.18 28.92 66.01
 41 8 67.21 29.24 66.13
 42 9 65.68 28.72 66.96
 43 20 66.1 27.53 64.88
 44 21 67.1 27.91 64.07
 45 15 65.42 31.4 66.22
 46 16 65.06 31.4 67.4
 47 1 65.79 32.49 65.65
 48 2 66.18 32.37 64.73
 49 5 65.73 33.86 66.16
 50 6 65.99 34.52 65.33
 51 7 64.27 34.38 66.55
 52 8 63.88 33.81 67.39
 53 9 64.07 35.43 66.77
 54 10 63.33 34.15 65.41
 55 22 62.51 33.06 65.51
 56 23 62.5 32.46 66.41
 57 24 61.65 32.81 64.47
 58 25 60.9 32.04 64.56
 59 26 61.73 33.62 63.3
 60 27 60.98 33.39 62.55
 61 28 62.7 34.69 63.19
 62 29 62.64 35.3 62.3
 63 30 63.49 35.01 64.3
 64 31 64.1 35.9 64.34
 65 15 66.74 34.02 67.35
 66 16 66.59 34.91 68.16
 67 1 67.76 33.14 67.45
 68 2 67.82 32.43 66.74
 69 5 68.78 33.2 68.58
 70 6 68.26 33.36 69.52
 71 7 69.63 31.85 68.73
 72 32 70.34 31.94 67.9
 73 33 70.49 31.92 70.01
 74 34 69.8 31.79 70.84
 75 35 71.24 31.13 69.93
 76 36 70.94 32.9 70.21
 77 37 68.87 30.51 68.61
 78 38 68.35 30.27 69.54
 79 39 68.1 30.58 67.84
 80 22 69.85 29.35 68.31
 81 40 69.32 28.4 68.37
 82 41 70.21 29.42 67.28
 83 42 70.77 29.28 68.89
 84 15 69.68 34.42 68.35
 85 16 70.28 34.47 67.29
 86 1 69.75 35.3 69.34
 87 2 69.24 35.1 70.19
 88 5 70.7 36.44 69.36
 89 6 70.47 37.09 68.52
 90 7 70.6 37.09 70.73
 91 8 71.06 36.43 71.47
 92 9 71.17 38.01 70.68
 93 10 69.15 37.54 71.18
 94 21 68.53 36.65 71.16
 95 22 68.55 38.49 70.11
 96 40 69.17 39.39 70.14
 97 41 68.58 38.13 69.08
 98 42 67.51 38.71 70.37
 99 30 69.09 38.2 72.54
 100 13 68.11 38.07 73
 101 14 69.75 37.76 73.3
 102 43 69.39 39.24 72.38
 103 15 72.14 35.96 69.12
 104 16 72.39 34.83 69.47
 105 44 73.12 36.7 68.63
 106 45 72.97 38.18 68.43
 107 46 73.7 39.01 69.44
 108 47 75.22 38.64 69.38
 109 48 76.04 39.44 70.35
 110 49 76.66 40.77 69.69
 111 50 75.48 41.63 69.58
 112 51 77.55 40.38 68.61
 113 52 77.56 41.55 71.01
 114 53 76.88 42.28 71.97
 115 54 77.57 42.75 73.07
 116 55 78.95 42.48 73.28
 117 56 79.64 41.84 72.29
 118 57 78.94 41.28 71.16
 119 58 79.39 40.62 70.43
 120 59 80.71 41.73 72.38
 121 60 79.68 43 74.46
 122 61 79.7 44.09 74.35
 123 62 80.7 42.64 74.63
 124 63 79.05 42.77 75.31
 125 64 77.11 43.44 73.77
 126 65 75.81 42.48 71.98
 127 66 76.87 38.91 70.6
 128 67 75.64 38.89 68.41
 129 68 73.38 38.75 70.45
 130 69 73.61 40.06 69.19
 131 70 73.32 38.43 67.43
 132 71 71.91 38.42 68.52
 133 72 74.54 36.36 68.61
 134 73 74.65 35.3 68.82
 135 3 75.04 36.38 67.64
 136 74 75.35 37.13 69.74
 137 75 74.84 37.07 70.7
 138 76 76.78 36.66 69.78
 139 77 77.67 36.82 68.58
 140 78 78.91 36.05 68.97
 141 79 78.46 34.97 70.01
 142 80 78.6 33.96 69.63
 143 81 79.02 35.25 70.91
 144 82 79.64 36.78 69.3
 145 83 79.4 35.61 68.1
 146 84 78.04 37.8 68.25
 147 85 77.2 36.36 67.71
 148 86 76.96 35.27 70.21
 149 87 76.59 34.64 69.4
 150 88 76.45 34.92 71.61
 151 89 75.82 33.88 71.78
 152 1 76.86 35.61 72.63
 153 2 77.29 36.51 72.5
 154 5 76.46 35.19 73.99
 155 6 76.17 34.14 73.99
 156 7 77.56 35.37 75.02
 157 8 78.29 34.61 74.74
 158 9 78.1 36.3 74.88
 159 10 77.21 35.25 76.5
 160 90 76.63 36.24 77.29
 161 24 76.46 35.68 78.48
 162 25 76.06 36.19 79.34
 163 91 76.82 34.39 78.5
 164 29 76.66 33.76 79.27
 165 30 77.23 34.1 77.2
 166 31 77.54 33.17 76.76
 167 15 75.08 35.83 74.37
 168 16 74.82 37 74.12
 169 1 74.32 35.1 75.21
 170 2 74.54 34.12 75.24
 171 5 72.89 35.39 75.42
 172 6 72.56 35.67 74.41
 173 7 72.15 34.17 76.01
 174 8 72.34 33.4 75.27
 175 9 72.59 33.99 76.99
 176 10 70.6 34.44 76.27
 177 92 70.51 35.26 76.98
 178 93 70.2 34.75 75.3
 179 94 69.78 33.31 76.91
 180 95 70.32 32.32 77.39
 181 91 68.51 33.48 77
 182 96 67.98 32.7 77.37
 183 97 68.03 34.3 76.65
 184 15 72.6 36.7 76.27
 185 16 71.62 37.47 76.03
 186 1 73.58 37.04 77.11
 187 2 74.35 36.39 77.18
 188 5 73.54 38.18 77.99
 189 6 72.67 38.78 77.74
 190 7 73.33 37.61 79.42
 191 8 74.28 37.13 79.64
 192 9 73.16 38.42 80.12
 193 10 72.14 36.63 79.57
 194 22 72.24 35.3 79.64
 195 23 73.15 34.75 79.44
 196 98 70.94 34.77 79.57
 197 25 70.89 33.77 79.51
 198 28 69.97 35.73 79.55
 199 99 68.56 35.75 79.57
 200 100 68.01 34.82 79.61
 201 101 67.93 37.02 79.6
 202 102 66.86 37.14 79.63
 203 103 68.64 38.22 79.77
 204 104 68.09 39.15 79.81
 205 105 70.06 38.17 79.8
 206 106 70.55 39.12 79.91
 207 30 70.76 36.92 79.61
 208 15 74.85 39.04 77.94
 209 16 75.44 39.51 78.97
 210 1 75.35 39.29 76.77
 211 2 74.81 38.96 75.98
 212 5 76.73 39.73 76.58
 213 6 77.36 39.14 77.24
 214 7 77.22 39.38 75.15
 215 8 76.83 38.39 74.93
 216 9 76.8 40.07 74.41
 217 20 79.04 39.36 75.01
 218 21 79.49 40.61 75.11
 219 15 76.9 41.31 76.88
 220 16 77.98 41.8 77.18
 221 1 75.89 42.15 76.63
 222 2 75.08 41.64 76.31
 223 5 75.9 43.6 76.68
 224 17 75.9 43.79 77.76
 225 18 76.78 44.01 76.19
 226 15 74.67 44.23 75.97
 227 16 74.34 43.76 74.88
 228 1 74.05 45.27 76.58
 229 2 74.43 45.54 77.48
 230 5 72.99 46.05 75.92
 231 6 73.26 46.18 74.87
 232 7 71.62 45.34 76.03
 233 8 70.88 45.94 75.5
 234 9 71.76 44.38 75.54
 235 107 71.26 45.08 77.38
 236 21 71.81 44.36 77.67
 237 15 72.86 47.45 76.61
 238 16 73.58 47.68 77.6
 239 1 72.11 48.4 75.97
 240 2 71.51 48.06 75.24
 241 5 72.07 49.83 76.18
 242 6 72.65 49.93 77.1
 243 7 72.86 50.66 75.18
 244 8 72.41 50.52 74.19
 245 9 72.86 51.69 75.54
 246 10 74.32 50.33 75.13
 247 11 74.83 49.71 74.16
 248 12 75.09 50.81 76.11
 249 13 76.06 50.55 76.13
 250 14 74.62 51.34 76.83
 251 15 70.59 50.25 76.32
 252 16 69.74 49.87 75.51
 253 1 70.39 51.18 77.24
 254 108 71.17 51.55 77.77
 255 109 69.55 51.74 77.24
ITEM: TIMESTEP
3
ITEM: NUMBER OF ATOMS
255
ITEM: BOX BOUNDS pp pp pp
-1.896 78.276
9.30099 89.979
-35.679 44.699
ITEM: ATOMS id type xu yu zu
 1 1 40.43 48.88 8.12
 2 2 40.33 48.59 9.08
 3 3 40.2 48.01 7.66
 4 4 39.83 49.67 7.94
 5 5 41.82 49.17 7.71
 6 6 42.42 48.4 8.19
 7 7 42.04 49.01 6.22
 8 8 41.77 47.98 5.98
 9 9 41.34 49.66 5.69
 10 10 43.47 49.18 5.75
 11 11 44.45 48.96 6.45
 12 12 43.66 49.61 4.55
 13 13 44.6 49.88 4.29
 14 14 42.99 49.81 3.82
 15 15 42.36 50.46 8.37
 16 16 41.74 51.47 8.15
 17 1 43.53 50.38 9.04
 18 2 43.87 49.49 9.38
 19 5 44.3 51.54 9.54
 20 17 45.32 51.33 9.87
 21 18 44.41 52.32 8.79
 22 15 43.65 52.25 10.82
 23 16 42.42 52.18 11
 24 1 44.44 53.05 11.52
 25 2 45.43 52.96 11.32
 26 5 43.97 54.19 12.36
 27 6 43.12 53.8 12.92
 28 7 45.07 54.6 13.34
 29 8 45.9 55.11 12.84
 30 9 44.64 55.32 14.04
 31 10 45.7 53.46 14.16
 32 11 46.9 53.46 14.4
 33 19 44.96 52.49 14.49
 34 15 43.32 55.36 11.63
 35 16 43.03 56.4 12.27
 36 1 43.3 55.3 10.24
 37 2 43.75 54.58 9.7
 38 5 42.41 56.03 9.42
 39 6 42.2 57.01 9.84
 40 7 43.19 56.18 8.06
 41 8 42.48 56.6 7.35
 42 9 44.02 56.88 8.23
 43 20 43.61 54.53 7.37
 44 21 44.86 54.38 7.82
 45 15 41.01 55.39 9.35
 46 16 40.1 56.12 9.04
 47 1 40.8 54.1 9.75
 48 2 41.59 53.66 10.2
 49 5 39.56 53.38 9.77
 50 6 39.84 52.36 10.03
 51 7 38.71 53.88 10.97
 52 8 38.44 54.93 10.88
 53 9 37.76 53.34 11.02
 54 10 39.43 53.62 12.31
 55 22 39.42 52.35 12.98
 56 23 38.83 51.51 12.63
 57 24 40.21 52.2 14.12
 58 25 40.37 51.19 14.45
 59 26 40.85 53.28 14.75
 60 27 41.49 53.2 15.61
 61 28 40.82 54.51 14.1
 62 29 41.27 55.39 14.53
 63 30 40.22 54.66 12.86
 64 31 40.3 55.64 12.42
 65 15 38.66 53.37 8.45
 66 16 37.57 53.86 8.4
 67 1 39.28 52.77 7.42
 68 2 40.14 52.25 7.52
 69 5 38.69 52.83 6.07
 70 6 37.73 53.32 6.17
 71 7 39.69 53.52 5.1
 72 32 39.1 53.68 4.19
 73 33 40.15 54.9 5.65
 74 34 40.59 55.44 4.81
 75 35 39.31 55.49 6.01
 76 36 40.84 54.69 6.47
 77 37 40.92 52.61 4.81
 78 38 41.23 52.07 5.71
 79 39 40.68 51.88 4.03
 80 22 42.17 53.31 4.25
 81 40 42.9 52.57 3.92
 82 41 41.86 53.9 3.39
 83 42 42.72 53.82 5.04
 84 15 38.36 51.41 5.64
 85 16 38.76 50.44 6.28
 86 1 37.72 51.16 4.5
 87 2 37.19 51.89 4.04
 88 5 37.39 49.8 3.96
 89 6 37.08 49.23 4.83
 90 7 36.36 49.89 2.83
 91 8 36.78 50.35 1.93
 92 9 36 48.89 2.57
 93 10 35.15 50.68 3.19
 94 21 35.43 51.72 3.38
 95 22 34.44 50.14 4.46
 96 40 34.13 49.1 4.36
 97 41 35.16 50.2 5.28
 98 42 33.56 50.74 4.71
 99 30 34.19 50.48 2.05
 100 13 34.73 50.5 1.1
 101 14 33.75 49.48 2.06
 102 43 33.34 51.16 2.06
 103 15 38.74 49.21 3.46
 104 16 39.51 49.92 2.86
 105 44 39.07 47.93 3.74
 106 45 38.24 46.97 4.5
 107 46 37.42 46.07 3.47
 108 47 38.38 45.3 2.49
 109 48 37.65 44.67 1.44
 110 49 36.5 43.58 1.64
 111 50 35.38 44.16 2.35
 112 51 37.11 42.31 2.01
 113 52 36.09 43.3 -0.08
 114 53 35.24 44.23 -0.67
 115 54 34.86 44.12 -1.99
 116 55 35.35 43.06 -2.79
 117 56 36.11 42.03 -2.15
 118 57 36.44 42.12 -0.81
 119 58 36.94 41.26 -0.38
 120 59 36.46 41.29 -2.85
 121 60 34.98 43.05 -4.27
 122 61 34.81 44.07 -4.61
 123 62 34.1 42.43 -4.45
 124 63 35.79 42.64 -4.88
 125 64 34.26 44.93 -2.37
 126 65 35 45.14 -0.13
 127 66 37.19 45.45 0.99
 128 67 38.94 44.6 3.11
 129 68 36.56 46.54 2.99
 130 69 36.98 45.25 4.04
 131 70 38.91 46.31 5.04
 132 71 37.61 47.43 5.26
 133 72 40.11 47.2 3.02
 134 73 40.89 47.8 2.55
 135 3 40.7 46.54 3.66
 136 74 39.39 46.33 1.9
 137 75 38.8 47.05 1.33
 138 76 40.35 45.63 1.01
 139 77 41.13 44.43 1.45
 140 78 42.25 44.26 0.44
 141 79 42.48 45.58 -0.24
 142 80 43.47 45.97 0.01
 143 81 42.36 45.53 -1.32
 144 82 41.91 43.47 -0.24
 145 83 43.16 43.91 0.91
 146 84 40.44 43.59 1.45
 147 85 41.55 44.57 2.45
 148 86 41.51 46.5 0.51
 149 87 42.11 46.85 1.35
 150 88 41.08 47.78 -0.27
 151 89 41.69 48.84 -0.1
 152 1 40.07 47.73 -1.1
 153 2 39.66 46.81 -1.24
 154 5 39.51 48.86 -1.82
 155 6 40.33 49.46 -2.23
 156 7 38.67 48.39 -3.01
 157 8 39.32 47.84 -3.69
 158 9 37.81 47.8 -2.69
 159 10 38.26 49.55 -3.97
 160 90 37.5 50.7 -3.64
 161 24 37.42 51.44 -4.71
 162 25 36.74 52.28 -4.78
 163 91 38.11 50.85 -5.68
 164 29 38.21 51.29 -6.59
 165 30 38.71 49.68 -5.28
 166 31 39.26 49 -5.91
 167 15 38.72 49.74 -0.83
 168 16 37.96 49.25 0.07
 169 1 38.9 51.02 -0.94
 170 2 39.44 51.41 -1.7
 171 5 38.31 52.04 -0.04
 172 6 38.64 51.83 0.98
 173 7 39.05 53.35 -0.36
 174 8 40.11 53.07 -0.39
 175 9 38.7 53.7 -1.33
 176 10 38.81 54.45 0.61
 177 92 37.76 54.75 0.54
 178 93 39.1 54 1.56
 179 94 39.68 55.66 0.3
 180 95 40.43 55.61 -0.66
 181 91 39.66 56.71 1.12
 182 96 40.36 57.38 0.83
 183 97 39.06 56.75 1.93
 184 15 36.76 52.26 -0.11
 185 16 36.2 52.91 0.78
 186 1 36.13 51.74 -1.15
 187 2 36.58 51.02 -1.69
 188 5 34.73 52.1 -1.48
 189 6 34.1 52.44 -0.65
 190 7 34.69 53.31 -2.42
 191 8 35.16 53.15 -3.39
 192 9 33.65 53.56 -2.62
 193 10 35.16 54.65 -1.9
 194 22 36.4 55.09 -2.18
 195 23 37.18 54.57 -2.71
 196 98 36.69 56.3 -1.53
 197 25 37.55 56.81 -1.69
 198 28 35.51 56.73 -0.85
 199 99 35.23 57.8 -0.04
 200 100 35.96 58.57 0.19
 201 101 33.95 57.96 0.64
 202 102 33.7 58.71 1.38
 203 103 32.95 56.97 0.39
 204 104 31.95 57.06 0.79
 205 105 33.32 55.83 -0.38
 206 106 32.54 55.11 -0.53
 207 30 34.54 55.66 -1.03
 208 15 33.99 50.89 -2
 209 16 32.76 50.78 -1.92
 210 1 34.75 49.91 -2.55
 211 2 35.74 50.06 -2.66
 212 5 34.17 48.7 -3.12
 213 6 33.44 49.03 -3.87
 214 7 35.21 47.87 -3.83
 215 8 35.93 48.5 -4.35
 216 9 35.66 47.14 -3.16
 217 20 34.31 46.91 -5.14
 218 21 35.18 47.15 -6.11
 219 15 33.38 47.97 -2.08
 220 16 33.9 47.63 -1.07
 221 1 32.09 47.86 -2.35
 222 2 31.77 48.22 -3.24
 223 5 31.08 47.88 -1.31
 224 17 31.27 48.59 -0.5
 225 18 30.17 48.1 -1.88
 226 15 30.64 46.6 -0.67
 227 16 29.98 46.58 0.36
 228 1 31.09 45.46 -1.14
 229 2 31.72 45.53 -1.93
 230 5 30.76 44.16 -0.6
 231 6 29.67 44.15 -0.49
 232 7 30.99 43.03 -1.58
 233 8 30.7 43.3 -2.59
 234 9 32.04 42.75 -1.63
 235 107 30.17 42.03 -1.12
 236 21 29.48 41.97 -1.79
 237 15 31.49 43.9 0.71
 238 16 32.43 44.55 1.11
 239 1 31.06 42.8 1.41
 240 2 30.18 42.39 1.13
 241 5 31.57 42.49 2.79
 242 6 31.84 43.37 3.37
 243 7 30.54 41.67 3.57
 244 8 29.51 42 3.44
 245 9 30.72 40.65 3.22
 246 10 30.69 41.59 5.13
 247 11 31.16 40.57 5.63
 248 12 30.27 42.62 5.86
 249 13 30.32 42.53 6.86
 250 14 29.77 43.37 5.41
 251 15 32.9 41.76 2.83
 252 16 33.23 41.16 3.86
 253 1 33.7 41.69 1.77
 254 108 33.66 42.23 0.92
 255 109 34.6 41.31 2.01
ITEM: TIMESTEP
4
ITEM: NUMBER OF ATOMS
255
ITEM: BOX BOUNDS pp pp pp
-1.571 78.601
30.486 111.164
-39.144 41.234
ITEM: ATOMS id type xu yu zu
 1 1 32.16 70.88 -5.35
 2 2 32.67 70.66 -6.19
 3 3 32.38 71.83 -5.07
 4 4 31.19 70.95 -5.61
 5 5 32.51 69.91 -4.26
 6 6 33.56 69.64 -4.38
 7 7 32.26 70.42 -2.86
 8 8 31.18 70.4 -2.67
 9 9 32.67 69.72 -2.13
 10 10 32.92 71.79 -2.58
 11 11 33.45 72.51 -3.46
 12 12 33.06 72.19 -1.28
 13 13 33.14 73.18 -1.1
 14 14 32.69 71.59 -0.56
 15 15 31.67 68.65 -4.46
 16 16 30.52 68.72 -4.83
 17 1 32.3 67.53 -4.08
 18 2 33.23 67.54 -3.67
 19 5 31.63 66.22 -4.35
 20 17 31.33 66.19 -5.4
 21 18 32.39 65.44 -4.42
 22 15 30.53 65.79 -3.38
 23 16 29.97 66.65 -2.74
 24 1 30.2 64.5 -3.34
 25 2 30.49 63.89 -4.09
 26 5 28.93 64 -2.67
 27 6 28.04 64.47 -3.11
 28 7 28.78 62.5 -2.68
 29 8 29.53 62.1 -2
 30 9 27.86 62.07 -2.31
 31 10 29.07 61.75 -3.98
 32 11 30.23 61.54 -4.43
 33 19 28.09 61.07 -4.48
 34 15 28.75 64.43 -1.23
 35 16 27.62 64.3 -0.66
 36 1 29.85 64.65 -0.45
 37 2 30.75 64.57 -0.91
 38 5 29.8 65.13 0.97
 39 6 28.85 64.87 1.43
 40 7 30.92 64.51 1.74
 41 8 31.89 64.74 1.33
 42 9 30.89 64.89 2.76
 43 20 30.66 62.68 1.84
 44 21 30.61 62.65 0.51
 45 15 29.8 66.71 1.08
 46 16 29.54 67.2 2.22
 47 1 30.14 67.46 0.03
 48 2 30.36 67.01 -0.85
 49 5 30.42 68.83 0.08
 50 6 30.75 69.16 -0.9
 51 7 29.14 69.63 0.32
 52 8 28.43 69.15 -0.34
 53 9 28.75 69.56 1.33
 54 10 29.16 71.12 -0.03
 55 22 29.06 71.54 -1.35
 56 23 28.96 70.86 -2.18
 57 24 28.86 72.9 -1.57
 58 25 28.73 73.19 -2.61
 59 26 28.8 73.85 -0.6
 60 27 28.72 74.9 -0.82
 61 28 29.01 73.5 0.73
 62 29 29 74.19 1.56
 63 30 29.19 72.11 1.01
 64 31 29.28 71.67 1.99
 65 15 31.6 69.24 1
 66 16 32.05 70.34 0.89
 67 1 32.15 68.47 1.92
 68 2 31.66 67.61 2.13
 69 5 33.49 68.73 2.37
 70 6 33.46 69.77 2.7
 71 7 33.98 67.81 3.52
 72 32 35 67.98 3.87
 73 33 32.96 67.9 4.7
 74 34 32.08 67.27 4.53
 75 35 33.49 67.58 5.59
 76 36 32.72 68.95 4.78
 77 37 34.06 66.31 3.14
 78 38 33.13 66.01 2.66
 79 39 34.8 66.17 2.35
 80 22 34.55 65.32 4.24
 81 40 35.39 65.78 4.77
 82 41 33.79 65.18 5.01
 83 42 34.93 64.39 3.81
 84 15 34.59 68.78 1.35
 85 16 34.65 68.12 0.31
 86 1 35.63 69.6 1.64
 87 2 35.63 70.2 2.45
 88 5 36.81 69.83 0.79
 89 6 36.46 69.91 -0.24
 90 7 37.43 71.16 1.29
 91 8 37.34 71.1 2.37
 92 9 38.48 71.29 1.03
 93 10 36.54 72.46 1.06
 94 21 35.47 72.36 1.18
 95 22 36.89 73.13 -0.26
 96 40 36.88 72.44 -1.1
 97 41 36.17 73.91 -0.49
 98 42 37.89 73.54 -0.16
 99 30 36.89 73.5 2.11
 100 13 37.97 73.65 2.12
 101 14 36.37 74.44 1.9
 102 43 36.58 73.12 3.09
 103 15 37.78 68.65 0.79
 104 16 37.69 67.94 1.78
 105 44 38.73 68.47 -0.18
 106 45 38.85 69.32 -1.36
 107 46 40.35 69.83 -1.48
 108 47 41.28 68.61 -1.59
 109 48 42.73 68.88 -1.7
 110 49 43.49 68.7 -3.17
 111 50 43.62 70 -3.79
 112 51 42.88 67.55 -3.82
 113 52 45.05 68.18 -2.45
 114 53 45.8 69.02 -1.59
 115 54 46.92 68.57 -0.85
 116 55 47.36 67.26 -0.99
 117 56 46.67 66.41 -1.91
 118 57 45.6 66.88 -2.69
 119 58 45.14 66.25 -3.43
 120 59 46.96 65.4 -2.14
 121 60 48.55 66.69 -0.26
 122 61 48.79 67.23 0.66
 123 62 49.41 66.65 -0.93
 124 63 48.32 65.64 -0.05
 125 64 47.42 69.21 -0.14
 126 65 45.52 70.05 -1.46
 127 66 43.21 68.1 -1.26
 128 67 40.94 68.18 -2.52
 129 68 40.7 70.38 -0.6
 130 69 40.41 70.43 -2.38
 131 70 38.48 68.83 -2.26
 132 71 38.23 70.22 -1.31
 133 72 39.5 67.17 -0.29
 134 73 39.39 66.52 0.58
 135 3 39.1 66.74 -1.21
 136 74 40.99 67.63 -0.4
 137 75 41.07 68.17 0.54
 138 76 41.99 66.49 -0.45
 139 77 41.73 65.38 -1.35
 140 78 42.68 64.15 -0.93
 141 79 42.87 64.43 0.54
 142 80 42.39 63.66 1.15
 143 81 43.92 64.52 0.79
 144 82 43.65 64.25 -1.41
 145 83 42.21 63.19 -1.16
 146 84 42.07 65.64 -2.35
 147 85 40.7 65.02 -1.38
 148 86 42.23 65.77 0.85
 149 87 41.23 65.49 1.19
 150 88 42.75 66.51 2.04
 151 89 42.04 66.56 3.04
 152 1 43.95 67.05 2.01
 153 2 44.54 66.76 1.25
 154 5 44.39 67.92 3.06
 155 6 44.45 67.35 3.99
 156 7 45.73 68.47 2.71
 157 8 46.37 67.59 2.65
 158 9 45.73 68.98 1.75
 159 10 46.37 69.35 3.79
 160 90 46.76 70.69 3.66
 161 24 47.38 71 4.76
 162 25 47.82 71.97 4.95
 163 91 47.39 69.95 5.59
 164 29 47.9 69.93 6.46
 165 30 46.73 68.89 5.03
 166 31 46.68 67.91 5.48
 167 15 43.34 69 3.35
 168 16 43.04 69.79 2.47
 169 1 42.78 69.01 4.61
 170 2 43.05 68.25 5.23
 171 5 41.49 69.66 4.84
 172 6 40.72 69.29 4.16
 173 7 41.1 69.34 6.35
 174 8 41.84 69.7 7.07
 175 9 40.17 69.88 6.51
 176 10 40.69 67.89 6.57
 177 92 39.84 67.67 5.92
 178 93 41.45 67.13 6.39
 179 94 40.26 67.56 7.98
 180 95 40.37 68.35 8.89