ITEM: TIMESTEP
0
ITEM: NUMBER OF ATOMS
255
ITEM: BOX BOUNDS pp pp pp
-40.116 40.056
11.136 91.814
36.816 117.194
ITEM: ATOMS id type xu yu zu
 1 1 -1.1 48.5 78.96
 2 2 -0.54 47.84 78.45
 3 3 -1.07 49.37 78.45
 4 4 -2.05 48.16 79.06
 5 5 -0.45 48.69 80.27
 6 6 0.62 48.74 80.06
 7 7 -1.02 49.82 81.12
 8 8 -2.01 49.6 81.53
 9 9 -0.41 49.78 82.02
 10 10 -1 51.19 80.48
 11 11 -0.7 51.32 79.28
 12 12 -1.01 52.22 81.26
 13 13 -0.77 53.12 80.88
 14 14 -1.13 52.13 82.26
 15 15 -0.77 47.52 81.1
 16 16 -1.85 46.91 80.94
 17 1 0 47.18 82.12
 18 2 0.67 47.89 82.38
 19 5 -0.23 46.03 83.07
 20 17 0.6 45.97 83.77
 21 18 -1.14 46.19 83.64
 22 15 -0.43 44.66 82.36
 23 16 0.39 44.35 81.43
 24 1 -1.45 43.92 82.83
 25 2 -2.04 44.45 83.46
 26 5 -1.95 42.63 82.33
 27 6 -1.01 42.08 82.31
 28 7 -2.79 41.86 83.35
 29 8 -2.76 40.81 83.03
 30 9 -2.17 41.84 84.24
 31 10 -4.17 42.49 83.46
 32 11 -5.06 41.83 84.05
 33 19 -4.39 43.63 82.92
 34 15 -2.48 42.53 80.86
 35 16 -2.78 41.42 80.42
 36 1 -2.54 43.65 80.16
 37 2 -2.33 44.47 80.7
 38 5 -3.02 43.77 78.72
 39 6 -2.84 42.78 78.32
 40 7 -4.52 44.22 78.73
 41 8 -5.13 43.47 79.23
 42 9 -4.55 45.22 79.17
 43 20 -4.92 44.24 76.96
 44 21 -4.2 43.18 76.58
 45 15 -2.01 44.73 78.19
 46 16 -2.23 45.95 77.93
 47 1 -0.92 44.08 77.85
 48 2 -0.89 43.12 78.18
 49 5 0.31 44.55 77.24
 50 6 0.88 43.64 77.08
 51 7 -0.01 45.27 75.9
 52 8 -0.5 46.22 76.1
 53 9 0.97 45.57 75.52
 54 10 -0.69 44.28 74.97
 55 22 -2.05 44.37 74.57
 56 23 -2.68 45.13 75.02
 57 24 -2.61 43.44 73.61
 58 25 -3.66 43.34 73.38
 59 26 -1.79 42.44 73.02
 60 27 -2.25 41.73 72.36
 61 28 -0.41 42.38 73.34
 62 29 0.21 41.59 72.94
 63 30 0.14 43.31 74.3
 64 31 1.19 43.27 74.56
 65 15 1.13 45.48 78.1
 66 16 0.58 46.46 78.59
 67 1 2.34 45.16 78.49
 68 2 2.71 44.26 78.19
 69 5 3.16 46.15 79.26
 70 6 2.64 46.47 80.16
 71 7 4.53 45.42 79.7
 72 32 5.02 44.98 78.83
 73 33 5.55 46.36 80.4
 74 34 6.42 45.78 80.7
 75 35 6.03 47.02 79.69
 76 36 5.08 46.82 81.27
 77 37 4.2 44.22 80.56
 78 38 3.43 44.6 81.24
 79 39 3.7 43.47 79.95
 80 22 5.39 43.51 81.23
 81 40 6.16 43.25 80.51
 82 41 5.85 44.01 82.08
 83 42 4.98 42.57 81.6
 84 15 3.45 47.37 78.47
 85 16 3.73 47.36 77.27
 86 1 3.55 48.51 79.16
 87 2 3.3 48.45 80.14
 88 5 3.66 49.85 78.62
 89 6 2.9 50.05 77.86
 90 7 3.35 50.96 79.62
 91 8 2.39 50.74 80.1
 92 9 4.08 50.85 80.41
 93 10 3.37 52.46 79.05
 94 21 3.02 52.53 78.02
 95 22 4.72 53.01 79.25
 96 40 5.06 52.97 80.29
 97 41 5.47 52.51 78.64
 98 42 4.79 54.06 78.98
 99 30 2.44 53.33 79.84
 100 13 2.53 53.26 80.93
 101 14 2.67 54.36 79.57
 102 43 1.41 53.05 79.62
 103 15 5.03 49.98 78
 104 16 5.96 50.02 78.76
 105 44 5.33 50.16 76.68
 106 45 4.34 50.13 75.59
 107 46 4.15 51.56 75.27
 108 47 5.42 52.2 74.64
 109 48 5.14 53.54 74.26
 110 49 5.9 54.32 73.05
 111 50 6.11 53.31 72.07
 112 51 6.96 55.06 73.72
 113 52 4.7 55.48 72.56
 114 53 4.17 55.3 71.23
 115 54 3.23 56.16 70.75
 116 55 2.78 57.23 71.57
 117 56 3.3 57.46 72.89
 118 57 4.25 56.57 73.32
 119 58 4.67 56.67 74.31
 120 59 2.91 58.31 73.43
 121 60 1.72 58.07 70.92
 122 61 1.31 57.66 69.99
 123 62 2.26 58.99 70.71
 124 63 0.84 58.33 71.51
 125 64 2.78 56.05 69.77
 126 65 4.39 54.4 70.68
 127 66 5.65 54.09 74.94
 128 67 5.6 51.52 73.82
 129 68 3.96 52.09 76.21
 130 69 3.24 51.7 74.69
 131 70 4.79 49.67 74.71
 132 71 3.43 49.6 75.85
 133 72 6.63 50.53 76.14
 134 73 7.44 50.32 76.84
 135 3 6.8 49.9 75.27
 136 74 6.6 51.97 75.69
 137 75 6.35 52.59 76.55
 138 76 7.87 52.52 75.14
 139 77 8.59 51.74 74.12
 140 78 9.99 52.28 74.09
 141 79 10.3 52.83 75.52
 142 80 11.06 52.2 75.97
 143 81 10.57 53.88 75.41
 144 82 10.12 53.08 73.36
 145 83 10.71 51.54 73.72
 146 84 8.09 52.04 73.2
 147 85 8.66 50.65 74.18
 148 86 8.92 52.76 76.17
 149 87 8.96 51.91 76.85
 150 88 8.57 54.04 77.08
 151 89 8.48 54.02 78.25
 152 1 8.42 55.19 76.39
 153 2 8.25 55.13 75.4
 154 5 7.94 56.49 76.93
 155 6 8.39 56.55 77.92
 156 7 8.43 57.65 76.04
 157 8 9.52 57.7 76.06
 158 9 8.03 57.54 75.04
 159 10 7.95 59.01 76.54
 160 90 7.86 59.39 77.88
 161 24 7.64 60.69 77.94
 162 25 7.44 61.34 78.78
 163 91 7.61 61.17 76.67
 164 29 7.41 62.14 76.48
 165 30 7.74 60.1 75.8
 166 31 7.83 60 74.73
 167 15 6.42 56.37 77.21
 168 16 5.68 55.72 76.49
 169 1 5.99 57.1 78.17
 170 2 6.68 57.68 78.62
 171 5 4.6 57.16 78.6
 172 6 4.49 56.17 79.03
 173 7 4.38 58.17 79.76
 174 8 5.2 57.92 80.43
 175 9 4.37 59.21 79.43
 176 10 3.02 57.87 80.44
 177 92 2.15 58.25 79.89
 178 93 2.98 56.8 80.64
 179 94 3.03 58.59 81.77
 180 95 3.49 59.7 81.86
 181 91 2.47 58.11 82.82
 182 96 2.49 58.62 83.69
 183 97 2.11 57.16 82.84
 184 15 3.51 57.25 77.49
 185 16 3.51 58.14 76.64
 186 1 2.47 56.45 77.58
 187 2 2.55 55.85 78.39
 188 5 1.49 56.16 76.55
 189 6 1.43 56.98 75.83
 190 7 2.03 54.94 75.81
 191 8 2.88 55.32 75.25
 192 9 2.41 54.13 76.42
 193 10 1.17 54.33 74.78
 194 22 1.25 54.58 73.48
 195 23 1.87 55.3 72.98
 196 98 0.34 53.82 72.82
 197 25 -0.02 54.14 71.93
 198 28 -0.46 53.06 73.66
 199 99 -1.66 52.33 73.51
 200 100 -2.13 52.19 72.55
 201 101 -2.34 51.79 74.65
 202 102 -3.28 51.26 74.51
 203 103 -1.74 51.98 75.9
 204 104 -2.24 51.59 76.77
 205 105 -0.57 52.75 76.05
 206 106 -0.07 52.84 77
 207 30 0.08 53.37 74.94
 208 15 0.07 55.94 77.07
 209 16 -0.13 55.54 78.23
 210 1 -1.02 56.26 76.33
 211 2 -0.84 56.62 75.4
 212 5 -2.38 56.21 76.81
 213 6 -2.46 55.69 77.77
 214 7 -2.85 57.63 77.09
 215 8 -2.79 58.18 76.16
 216 9 -3.88 57.48 77.4
 217 20 -1.82 58.43 78.44
 218 21 -1.98 59.67 77.98
 219 15 -3.25 55.47 75.69
 220 16 -3.35 55.87 74.54
 221 1 -3.94 54.42 76.1
 222 2 -3.93 54.19 77.09
 223 5 -5.06 53.91 75.33
 224 17 -5.31 54.59 74.52
 225 18 -4.86 52.98 74.79
 226 15 -6.37 53.85 76.19
 227 16 -6.36 53.36 77.28
 228 1 -7.41 54.21 75.48
 229 2 -7.33 54.55 74.53
 230 5 -8.76 54.32 75.98
 231 6 -8.75 54.66 77.02
 232 7 -9.43 55.48 75.21
 233 8 -9.59 55.14 74.19
 234 9 -10.39 55.73 75.65
 235 107 -8.58 56.63 75.23
 236 21 -9.07 57.37 74.87
 237 15 -9.61 53.05 76
 238 16 -10.73 53.07 76.46
 239 1 -9.14 51.95 75.36
 240 2 -8.19 51.98 75.02
 241 5 -9.72 50.61 75.44
 242 6 -10.81 50.67 75.41
 243 7 -9.19 49.73 74.33
 244 8 -8.11 49.65 74.4
 245 9 -9.69 48.76 74.45
 246 10 -9.5 50.26 73.01
 247 11 -10.31 51.2 72.81
 248 12 -8.83 49.76 71.97
 249 13 -8.98 50.2 71.07
 250 14 -8.06 49.15 72.2
 251 15 -9.5 50 76.82
 252 16 -8.7 50.44 77.65
 253 1 -10.39 49.11 77.21
 254 108 -11.12 48.83 76.57
 255 109 -10.47 48.76 78.16
ITEM: TIMESTEP
1
ITEM: NUMBER OF ATOMS
255
ITEM: BOX BOUNDS pp pp pp
-22.261 57.911
15.066 95.744
37.511 117.889
ITEM: ATOMS id type xu yu zu
 1 1 22.68 53.14 76.38
 2 2 22.24 53.92 75.91
 3 3 22.16 52.3 76.17
 4 4 23.57 52.98 75.91
 5 5 22.91 53.4 77.82
 6 6 21.94 53.69 78.22
 7 7 23.41 52.04 78.52
 8 8 24.1 51.5 77.87
 9 9 24.05 52.24 79.38
 10 10 22.31 51.09 78.85
 11 11 21.09 51.21 78.51
 12 12 22.74 49.97 79.43
 13 13 22.03 49.37 79.81
 14 14 23.74 49.81 79.5
 15 15 23.95 54.5 78.01
 16 16 24.99 54.32 77.47
 17 1 23.66 55.67 78.53
 18 2 22.74 55.8 78.92
 19 5 24.68 56.71 78.58
 20 17 24.26 57.38 79.33
 21 18 25.62 56.28 78.92
 22 15 24.83 57.48 77.26
 23 16 25.17 58.65 77.26
 24 1 24.53 56.84 76.11
 25 2 24.05 55.95 76.14
 26 5 24.48 57.52 74.84
 27 6 25.39 58.1 74.72
 28 7 24.24 56.47 73.68
 29 8 24.23 57.06 72.76
 30 9 25.12 55.84 73.68
 31 10 22.92 55.6 73.81
 32 11 22.3 55.5 74.94
 33 19 22.42 54.98 72.83
 34 15 23.29 58.49 74.65
 35 16 23.31 59.45 73.84
 36 1 22.25 58.32 75.49
 37 2 22.26 57.6 76.2
 38 5 21.06 59.16 75.63
 39 6 20.51 59.16 74.69
 40 7 20.19 58.41 76.69
 41 8 19.32 59 76.97
 42 9 19.88 57.45 76.27
 43 20 21.2 57.95 78.11
 44 21 20.9 58.95 78.94
 45 15 21.38 60.57 76.06
 46 16 20.58 61.44 75.9
 47 1 22.64 60.82 76.47
 48 2 23.23 60.02 76.32
 49 5 23.27 62.09 76.97
 50 6 24.21 61.83 77.47
 51 7 23.71 63.09 75.9
 52 8 24.29 62.62 75.1
 53 9 22.77 63.48 75.5
 54 10 24.5 64.32 76.43
 55 22 25.71 64.18 77.15
 56 23 26.23 63.26 77.35
 57 24 26.39 65.35 77.59
 58 25 27.27 65.18 78.2
 59 26 25.87 66.6 77.26
 60 27 26.34 67.51 77.63
 61 28 24.64 66.72 76.54
 62 29 24.19 67.68 76.34
 63 30 24.01 65.59 76.06
 64 31 23.2 65.7 75.35
 65 15 22.51 62.78 78.13
 66 16 22.91 62.76 79.31
 67 1 21.35 63.24 77.83
 68 2 20.95 63.03 76.92
 69 5 20.34 63.8 78.8
 70 6 20.59 63.54 79.83
 71 7 20.37 65.31 78.77
 72 32 19.93 65.68 77.85
 73 33 19.42 65.84 79.87
 74 34 19.84 65.89 80.87
 75 35 19.32 66.89 79.6
 76 36 18.46 65.32 79.88
 77 37 21.81 65.84 79.07
 78 38 22.15 65.54 80.06
 79 39 22.56 65.56 78.32
 80 22 22.03 67.34 79.11
 81 40 22.13 67.77 78.12
 82 41 21.25 67.84 79.69
 83 42 22.96 67.51 79.64
 84 15 18.98 63.29 78.42
 85 16 18.67 63.31 77.29
 86 1 18.19 62.76 79.37
 87 2 18.36 62.9 80.36
 88 5 16.93 62.11 79.03
 89 6 16.49 62.74 78.26
 90 7 17.05 60.74 78.49
 91 8 17.92 60.71 77.84
 92 9 17.19 60.08 79.35
 93 10 15.68 60.34 77.74
 94 21 14.92 60.47 78.5
 95 22 15.94 58.86 77.35
 96 40 16.44 58.33 78.16
 97 41 15.03 58.39 76.96
 98 42 16.62 58.95 76.5
 99 30 15.5 61.15 76.4
 100 13 14.48 61 76.05
 101 14 15.62 62.22 76.59
 102 43 16.22 60.92 75.62
 103 15 15.87 62.31 80.17
 104 16 15.43 61.35 80.79
 105 44 15.4 63.6 80.48
 106 45 15.68 64.79 79.6
 107 46 14.4 65.07 78.87
 108 47 13.32 65.52 79.92
 109 48 12.09 65.81 79.16
 110 49 11.76 67.4 79.18
 111 50 12.46 68.06 80.23
 112 51 10.34 67.31 79.14
 113 52 12.34 67.99 77.62
 114 53 11.85 67.45 76.39
 115 54 12.34 68 75.23
 116 55 13.46 68.84 75.19
 117 56 14.09 69.22 76.38
 118 57 13.4 68.9 77.56
 119 58 13.72 69.39 78.47
 120 59 14.82 70.01 76.34
 121 60 14.01 69.33 73.87
 122 61 13.86 68.5 73.18
 123 62 15.04 69.59 74.06
 124 63 13.47 70.21 73.51
 125 64 11.85 67.8 74.28
 126 65 11.05 66.73 76.4
 127 66 11.29 65.65 79.75
 128 67 13.79 66.36 80.43
 129 68 14.04 64.2 78.32
 130 69 14.66 65.88 78.19
 131 70 15.91 65.7 80.16
 132 71 16.48 64.74 78.87
 133 72 14.42 63.85 81.48
 134 73 14.34 62.92 82.06
 135 3 14.67 64.63 82.2
 136 74 13.1 64.32 80.83
 137 75 12.71 63.48 80.26
 138 76 12.06 64.59 81.94
 139 77 12.16 65.8 82.69
 140 78 11.28 65.72 83.94
 141 79 11 64.18 84
 142 80 10.96 63.75 85
 143 81 9.99 64.12 83.58
 144 82 10.46 66.38 83.66
 145 83 11.74 66.07 84.86
 146 84 11.81 66.67 82.13
 147 85 13.18 66.08 82.94
 148 86 11.85 63.54 82.99
 149 87 12.8 63.48 83.51
 150 88 11.43 62.15 82.57
 151 89 11.74 61.17 83.18
 152 1 10.72 62.03 81.37
 153 2 10.5 62.92 80.94
 154 5 10.43 60.77 80.71
 155 6 10.04 60.09 81.47
 156 7 9.35 60.9 79.64
 157 8 8.38 61.1 80.1
 158 9 9.65 61.8 79.11
 159 10 9.24 59.74 78.66
 160 90 9.02 59.86 77.27
 161 24 8.89 58.6 76.86
 162 25 8.82 58.3 75.83
 163 91 8.94 57.71 77.86
 164 29 8.95 56.72 77.68
 165 30 9.15 58.45 79
 166 31 9.31 57.98 79.97
 167 15 11.67 60.07 80.14
 168 16 12.31 60.64 79.22
 169 1 11.87 58.81 80.49
 170 2 11.29 58.51 81.26
 171 5 12.9 57.9 79.91
 172 6 13.2 58.35 78.96
 173 7 14.11 57.86 80.82
 174 8 14.54 58.85 80.97
 175 9 13.91 57.53 81.84
 176 10 15.15 56.94 80.24
 177 92 14.85 55.89 80.33
 178 93 15.04 56.97 79.15
 179 94 16.59 57.18 80.67
 180 95 16.93 57.97 81.58
 181 91 17.5 56.35 80.21
 182 96 18.47 56.59 80.39
 183 97 17.33 55.67 79.49
 184 15 12.32 56.57 79.51
 185 16 11.59 55.94 80.32
 186 1 12.43 56.14 78.25
 187 2 12.88 56.77 77.61
 188 5 11.84 54.86 77.75
 189 6 10.79 54.84 78.02
 190 7 11.9 54.87 76.24
 191 8 11.41 55.77 75.88
 192 9 12.95 54.86 75.95
 193 10 11.3 53.64 75.67
 194 22 10.01 53.51 75.3
 195 23 9.24 54.27 75.32
 196 98 9.81 52.21 74.87
 197 25 8.96 51.91 74.43
 198 28 10.92 51.46 74.99
 199 99 11.19 50.08 74.71
 200 100 10.37 49.54 74.26
 201 101 12.44 49.48 75.05
 202 102 12.74 48.46 74.87
 203 103 13.45 50.34 75.54
 204 104 14.43 49.97 75.79
 205 105 13.17 51.71 75.78
 206 106 13.97 52.33 76.15
 207 30 11.91 52.31 75.5
 208 15 12.44 53.61 78.41
 209 16 13.63 53.53 78.64
 210 1 11.67 52.61 78.83
 211 2 10.75 52.67 78.41
 212 5 12.08 51.25 79.21
 213 6 12.98 50.96 78.65
 214 7 12.31 51.07 80.73
 215 8 11.38 51.31 81.25
 216 9 12.44 50.02 80.98
 217 20 13.59 51.98 81.53
 218 21 14.63 51.47 80.85
 219 15 11.04 50.19 78.73
 220 16 9.85 50.45 78.57
 221 1 11.56 48.97 78.48
 222 2 12.53 48.82 78.74
 223 5 10.8 47.84 78.05
 224 17 10.11 47.51 78.83
 225 18 10.24 48.26 77.22
 226 15 11.71 46.71 77.59
 227 16 12.87 46.73 77.89
 228 1 11.16 45.78 76.89
 229 2 10.18 45.84 76.66
 230 5 11.87 44.83 76.03
 231 6 12.7 45.44 75.64
 232 7 12.39 43.65 76.86
 233 8 12.92 44.05 77.73
 234 9 11.49 43.07 77.08
 235 107 13.29 42.8 76.1
 236 21 14.11 42.78 76.59
 237 15 10.99 44.35 74.86
 238 16 9.87 43.83 75.19
 239 1 11.49 44.42 73.64
 240 2 12.32 44.99 73.53
 241 5 10.96 43.93 72.42
 242 6 9.89 43.75 72.49
 243 7 11.07 45.04 71.32
 244 8 12.14 45.23 71.21
 245 9 10.58 44.71 70.4
 246 10 10.37 46.33 71.65
 247 11 9.23 46.29 72.04
 248 12 11.08 47.41 71.41
 249 13 10.57 48.29 71.51
 250 14 12.08 47.46 71.32
 251 15 11.64 42.6 72.08
 252 16 12.83 42.47 72.1
 253 1 10.88 41.51 71.85
 254 108 9.87 41.52 71.82
 255 109 11.28 40.6 71.67
ITEM: TIMESTEP
2
ITEM: NUMBER OF ATOMS
255
ITEM: BOX BOUNDS pp pp pp
-14.756 65.416
2.226 82.904
22.006 102.384
ITEM: ATOMS id type xu yu zu
 1 1 24.01 37.2 57.01
 2 2 23.64 36.31 56.7
 3 3 23.8 37.97 56.39
 4 4 23.78 37.43 57.97
 5 5 25.53 37.04 57.14
 6 6 25.97 37.94 57.56
 7 7 26.02 36.03 58.19
 8 8 25.63 35.05 57.9
 9 9 27.1 35.95 58.16
 10 10 25.55 36.48 59.63
 11 11 24.94 37.56 59.71
 12 12 25.79 35.84 60.75
 13 13 25.11 36.01 61.48
 14 14 26.37 35.01 60.7
 15 15 26.1 36.8 55.7
 16 16 25.4 36.13 54.96
 17 1 27.24 37.32 55.29
 18 2 27.8 37.87 55.93
 19 5 27.84 36.96 54.05
 20 17 27.05 36.76 53.33
 21 18 28.66 37.59 53.71
 22 15 28.54 35.58 54.2
 23 16 28.7 35.04 55.27
 24 1 29.01 35.12 53.04
 25 2 28.82 35.75 52.28
 26 5 29.72 33.85 52.79
 27 6 28.93 33.09 52.78
 28 7 30.37 33.96 51.44
 29 8 31.12 33.18 51.35
 30 9 29.64 33.72 50.66
 31 10 31 35.27 51.06
 32 11 30.29 36.2 50.65
 33 19 32.18 35.37 51.31
 34 15 30.6 33.29 53.97
 35 16 30.45 32.14 54.39
 36 1 31.48 34.07 54.49
 37 2 31.45 35.02 54.15
 38 5 32.43 33.82 55.58
 39 6 32.72 32.79 55.42
 40 7 33.68 34.67 55.33
 41 8 33.45 35.73 55.26
 42 9 34.34 34.43 56.17
 43 20 34.4 34.21 53.72
 44 21 33.46 34.6 52.86
 45 15 31.87 33.98 57.06
 46 16 32.66 34.07 57.99
 47 1 30.54 34.05 57.16
 48 2 29.97 33.85 56.35
 49 5 29.77 34.39 58.41
 50 6 28.7 34.42 58.2
 51 7 29.84 33.09 59.31
 52 8 30.04 32.22 58.69
 53 9 30.75 33.25 59.89
 54 10 28.64 32.86 60.21
 55 22 27.36 32.56 59.64
 56 23 27.28 32.59 58.57
 57 24 26.22 32.47 60.46
 58 25 25.23 32.33 60.06
 59 26 26.41 32.59 61.81
 60 27 25.6 32.61 62.53
 61 28 27.65 32.77 62.39
 62 29 27.69 32.86 63.47
 63 30 28.78 32.93 61.64
 64 31 29.77 33.09 62.04
 65 15 30.14 35.71 59.09
 66 16 30.21 35.88 60.31
 67 1 30.4 36.76 58.29
 68 2 30.4 36.63 57.29
 69 5 30.5 38.14 58.74
 70 6 31.13 38.2 59.62
 71 7 31.2 38.94 57.62
 72 32 30.74 38.72 56.65
 73 33 31.09 40.4 57.81
 74 34 31.21 40.87 56.83
 75 35 30.17 40.79 58.22
 76 36 31.95 40.77 58.37
 77 37 32.71 38.48 57.5
 78 38 33.2 38.71 58.45
 79 39 32.68 37.45 57.14
 80 22 33.53 39.15 56.4
 81 40 34.5 38.67 56.47
 82 41 33.04 38.89 55.46
 83 42 33.5 40.23 56.53
 84 15 29.08 38.67 59.04
 85 16 28.16 38.59 58.25
 86 1 28.92 39.21 60.22
 87 2 29.7 39.14 60.85
 88 5 27.83 40.19 60.58
 89 6 26.99 40.06 59.9
 90 7 27.34 40.07 62.06
 91 8 28.14 40.31 62.77
 92 9 26.61 40.87 62.21
 93 10 26.79 38.72 62.52
 94 21 26.83 38.09 61.63
 95 22 25.3 38.83 63
 96 40 24.67 39.27 62.23
 97 41 24.95 37.83 63.28
 98 42 25.16 39.45 63.89
 99 30 27.67 38.11 63.59
 100 13 27.43 37.05 63.57
 101 14 28.73 38.2 63.34
 102 43 27.44 38.61 64.53
 103 15 28.22 41.69 60.35
 104 16 29.35 41.95 60.69
 105 44 27.31 42.61 59.93
 106 45 25.93 42.55 59.75
 107 46 25.16 43.33 60.8
 108 47 25.62 44.77 61.07
 109 48 25.11 45.28 62.37
 110 49 23.51 45.54 62.65
 111 50 22.88 44.25 62.71
 112 51 23.16 46.66 61.84
 113 52 23.63 46.11 64.31
 114 53 24.4 45.36 65.28
 115 54 24.51 45.69 66.61
 116 55 23.86 46.91 67.01
 117 56 23.15 47.67 66.05
 118 57 23.03 47.27 64.76
 119 58 22.51 47.93 64.08
 120 59 22.69 48.62 66.3
 121 60 23.88 47.33 68.46
 122 61 23.09 46.86 69.05
 123 62 23.66 48.39 68.55
 124 63 24.85 47.16 68.93
 125 64 25.13 45.14 67.3
 126 65 24.88 44.47 64.89
 127 66 25.44 46.22 62.54
 128 67 25.27 45.42 60.27
 129 68 25.24 42.86 61.77
 130 69 24.08 43.3 60.67
 131 70 25.65 42.93 58.76
 132 71 25.6 41.52 59.81
 133 72 27.72 43.98 59.79
 134 73 28.79 44.07 59.98
 135 3 27.43 44.49 58.87
 136 74 27.14 44.74 61.02
 137 75 27.35 44.07 61.85
 138 76 27.7 46.06 61.35
 139 77 27.52 47.02 60.28
 140 78 28.54 48.18 60.39
 141 79 29.67 47.57 61.19
 142 80 30.54 47.43 60.55
 143 81 29.91 48.22 62.03
 144 82 28.14 48.92 61.08
 145 83 28.91 48.54 59.43
 146 84 26.49 47.35 60.23
 147 85 27.62 46.52 59.32
 148 86 29.17 46.15 61.73
 149 87 29.8 45.42 61.23
 150 88 29.58 45.81 63.17
 151 89 30.68 46.24 63.63
 152 1 28.8 45.04 63.92
 153 2 27.95 44.73 63.47
 154 5 28.97 44.49 65.2
 155 6 30.03 44.36 65.39
 156 7 28.51 45.52 66.16
 157 8 28.89 46.53 66.05
 158 9 27.43 45.5 66.05
 159 10 28.78 45.09 67.59
 160 90 27.96 44.19 68.29
 161 24 28.43 44.25 69.61
 162 25 27.94 43.67 70.38
 163 91 29.45 45.12 69.7
 164 29 29.85 45.37 70.59
 165 30 29.72 45.65 68.44
 166 31 30.52 46.35 68.24
 167 15 28.34 43.03 65.24
 168 16 27.29 42.87 64.55
 169 1 28.94 42.06 65.96
 170 2 29.61 42.31 66.67
 171 5 28.47 40.74 65.95
 172 6 28.33 40.46 64.91
 173 7 29.52 39.85 66.63
 174 8 29.55 38.89 66.11
 175 9 30.5 40.32 66.58
 176 10 29.34 39.44 68.12
 177 92 28.37 38.98 68.27
 178 93 30.08 38.67 68.37
 179 94 29.52 40.54 69.17
 180 95 29.95 41.62 68.89
 181 91 29.22 40.26 70.4
 182 96 29.34 41.01 71.07
 183 97 28.89 39.38 70.76
 184 15 27.06 40.64 66.59
 185 16 26.29 39.7 66.36
 186 1 26.76 41.51 67.56
 187 2 27.3 42.36 67.61
 188 5 25.56 41.4 68.42
 189 6 25.48 40.36 68.74
 190 7 25.76 42.23 69.69
 191 8 26.74 42.05 70.12
 192 9 25.73 43.3 69.47
 193 10 24.72 42.07 70.87
 194 22 24.87 41.45 72.05
 195 23 25.69 40.79 72.32
 196 98 23.79 41.75 72.83
 197 25 23.56 41.38 73.74
 198 28 22.94 42.64 72.25
 199 99 21.75 43.28 72.66
 200 100 21.46 43.13 73.69
 201 101 21 44.1 71.8
 202 102 20.11 44.65 72.06
 203 103 21.51 44.25 70.49
 204 104 20.96 44.91 69.83
 205 105 22.8 43.68 70.04
 206 106 23.26 43.93 69.09
 207 30 23.47 42.83 70.92
 208 15 24.29 41.65 67.57
 209 16 24.36 42.36 66.57
 210 1 23.28 40.82 67.89
 211 2 23.39 40.17 68.66
 212 5 21.98 40.84 67.08
 213 6 22.29 40.91 66.04
 214 7 21.15 39.58 67.29
 215 8 21.85 38.74 67.23
 216 9 20.69 39.4 68.26
 217 20 19.82 39.39 66.15
 218 21 20.51 39.18 65.03
 219 15 21.17 42.17 67.36
 220 16 20.11 42.23 67.99
 221 1 21.65 43.32 66.92
 222 2 22.52 43.29 66.41
 223 5 21.03 44.63 66.94
 224 17 20.31 44.69 67.75
 225 18 21.82 45.37 67.08
 226 15 20.36 44.99 65.64
 227 16 20.48 44.23 64.68
 228 1 19.76 46.16 65.64
 229 2 19.75 46.51 66.59
 230 5 19.21 46.94 64.57
 231 6 19.69 46.68 63.62
 232 7 17.79 46.43 64.47
 233 8 17.76 45.35 64.31
 234 9 17.42 46.77 65.44
 235 107 17.03 47.07 63.52
 236 21 16.16 47.13 63.92
 237 15 19.3 48.45 64.8
 238 16 19.24 48.84 65.96
 239 1 19.45 49.27 63.8
 240 2 19.61 48.9 62.87
 241 5 19.31 50.75 63.83
 242 6 18.88 51.11 64.77
 243 7 20.71 51.34 63.57
 244 8 21.09 50.84 62.68
 245 9 20.65 52.4 63.34
 246 10 21.7 51.17 64.73
 247 11 22.79 50.61 64.69
 248 12 21.29 51.64 65.85
 249 13 21.86 51.64 66.68
 250 14 20.38 52.07 65.89
 251 15 18.28 51.12 62.69
 252 16 18.2 50.38 61.76
 253 1 17.54 52.23 62.82
 254 108 17.84 52.99 63.41
 255 109 16.88 52.31 62.06
ITEM: TIMESTEP
3
ITEM: NUMBER OF ATOMS
255
ITEM: BOX BOUNDS pp pp pp
-34.356 45.816
0.215996 80.894
24.676 105.054
ITEM: ATOMS id type xu yu zu
 1 1 6.14 32.5 71.16
 2 2 6.76 32.85 71.88
 3 3 5.64 33.2 70.63
 4 4 6.64 31.99 70.45
 5 5 5.18 31.49 71.76
 6 6 4.51 31.13 70.99
 7 7 5.89 30.19 72.25
 8 8 6.71 30.5 72.89
 9 9 5.27 29.57 72.9
 10 10 6.5 29.4 71.11
 11 11 6.34 29.6 69.92
 12 12 7.35 28.51 71.53
 13 13 7.68 27.88 70.82
 14 14 7.32 28.2 72.49
 15 15 4.34 32.15 72.94
 16 16 4.87 32.98 73.65
 17 1 3.06 31.69 73.06
 18 2 2.77 30.92 72.47
 19 5 2.17 32.11 74.17
 20 17 1.29 31.46 74.23
 21 18 2.78 31.91 75.05
 22 15 1.7 33.62 74.24
 23 16 2.05 34.53 73.51
 24 1 0.84 33.84 75.3
 25 2 0.6 33.04 75.88
 26 5 0.2 35.14 75.67
 27 6 -0.44 35.43 74.84
 28 7 -0.56 35.03 76.99
 29 8 0.08 35.06 77.87
 30 9 -1.16 35.93 77.14
 31 10 -1.47 33.79 77.1
 32 11 -1.02 32.64 76.92
 33 19 -2.7 33.97 77.44
 34 15 1.11 36.39 75.84
 35 16 0.58 37.46 75.66
 36 1 2.4 36.19 76.19
 37 2 2.78 35.28 76.4
 38 5 3.24 37.36 76.41
 39 6 2.69 38.14 76.94
 40 7 4.5 36.9 77.11
 41 8 5.03 36.18 76.49
 42 9 5.17 37.72 77.36
 43 20 4.05 36.09 78.67
 44 21 3.5 37.21 79.17
 45 15 3.7 38.09 75.12
 46 16 3.8 39.36 75.09
 47 1 3.86 37.22 74.11
 48 2 3.67 36.25 74.26
 49 5 4.11 37.63 72.74
 50 6 4.24 36.62 72.35
 51 7 2.84 38.28 72.13
 52 8 1.99 37.93 72.71
 53 9 2.89 39.34 72.38
 54 10 2.64 38.11 70.6
 55 22 2.06 36.98 70.09
 56 23 1.8 36.18 70.76
 57 24 1.89 36.82 68.68
 58 25 1.44 35.93 68.28
 59 26 2.16 37.93 67.82
 60 27 1.85 37.84 66.79
 61 28 2.69 39.11 68.34
 62 29 2.81 40.03 67.79
 63 30 2.97 39.13 69.76
 64 31 3.43 40.03 70.12
 65 15 5.42 38.38 72.41
 66 16 5.5 39.17 71.49
 67 1 6.44 38.16 73.21
 68 2 6.34 37.43 73.91
 69 5 7.73 38.8 73.11
 70 6 7.62 39.86 73.34
 71 7 8.61 38.39 74.32
 72 32 8.85 37.33 74.31
 73 33 9.99 39.04 74.26
 74 34 9.81 40.08 74.02
 75 35 10.61 38.94 75.15
 76 36 10.56 38.63 73.43
 77 37 7.93 38.49 75.7
 78 38 7.36 37.57 75.81
 79 39 8.67 38.49 76.49
 80 22 7.04 39.69 75.97
 81 40 6.81 39.53 77.03
 82 41 7.62 40.58 75.72
 83 42 6.17 39.55 75.33
 84 15 8.49 38.54 71.77
 85 16 8.89 37.4 71.48
 86 1 8.62 39.59 70.98
 87 2 8.22 40.46 71.3
 88 5 9.08 39.73 69.61
 89 6 9.79 38.95 69.36
 90 7 7.92 39.56 68.59
 91 8 6.98 39.99 68.94
 92 9 8.15 40.25 67.78
 93 10 7.65 38.11 68
 94 21 8.57 37.55 68.14
 95 22 7.38 38.3 66.58
 96 40 8.34 38.57 66.13
 97 41 7.05 37.37 66.12
 98 42 6.68 39.09 66.31
 99 30 6.51 37.45 68.69
 100 13 5.55 37.92 68.46
 101 14 6.55 36.38 68.49
 102 43 6.72 37.51 69.75
 103 15 9.79 41.07 69.39
 104 16 9.5 42.04 70.08
 105 44 10.79 41.2 68.42
 106 45 11.08 40.14 67.44
 107 46 10.73 40.59 65.98
 108 47 11.45 41.92 65.64
 109 48 10.9 42.31 64.3
 110 49 11.77 41.99 62.94
 111 50 11.42 40.74 62.33
 112 51 13.15 42.32 63.34
 113 52 11.12 43.41 62.04
 114 53 10.24 43.28 60.87
 115 54 9.93 44.42 60.18
 116 55 10.25 45.72 60.68
 117 56 11.05 45.84 61.79
 118 57 11.57 44.7 62.45
 119 58 12.14 44.84 63.36
 120 59 11.34 46.78 62.23
 121 60 9.62 46.99 60.09
 122 61 8.97 46.74 59.26
 123 62 10.43 47.55 59.62
 124 63 9.16 47.55 60.91
 125 64 9.26 44.39 59.33
 126 65 9.77 42.32 60.72
 127 66 10.98 43.32 64.33
 128 67 12.53 41.77 65.7
 129 68 9.66 40.77 65.87
 130 69 10.97 39.75 65.33
 131 70 12.16 40 67.46
 132 71 10.55 39.23 67.72
 133 72 11.36 42.55 68.04
 134 73 11.15 43.31 68.79
 135 3 12.4 42.21 68.09
 136 74 11.01 43.04 66.59
 137 75 9.93 43.08 66.4
 138 76 11.53 44.32 66.1
 139 77 12.97 44.42 66.17
 140 78 13.21 45.91 65.97
 141 79 11.96 46.74 66.47
 142 80 12.04 47.45 67.29
 143 81 11.43 47.19 65.63
 144 82 13.48 46.02 64.92
 145 83 14.16 46.07 66.46
 146 84 13.51 43.81 65.44
 147 85 13.3 44.11 67.16
 148 86 11.09 45.53 66.88
 149 87 11.32 45.31 67.93
 150 88 9.59 45.78 66.7
 151 89 8.81 45.62 67.63
 152 1 9.14 46.1 65.47
 153 2 9.85 46.4 64.82
 154 5 7.72 46.1 65.03
 155 6 7.16 46.6 65.82
 156 7 7.63 46.87 63.69
 157 8 7.95 47.89 63.89
 158 9 8.25 46.26 63.03
 159 10 6.25 46.93 63.08
 160 90 5.15 47.61 63.61
 161 24 4.18 47.5 62.69
 162 25 3.23 47.99 62.78
 163 91 4.6 46.69 61.66
 164 29 4.13 46.65 60.77
 165 30 5.88 46.37 61.91
 166 31 6.54 45.8 61.29
 167 15 7.26 44.64 64.94
 168 16 7.73 43.89 64.15
 169 1 6.26 44.27 65.81
 170 2 5.86 44.96 66.42
 171 5 5.82 42.89 65.81
 172 6 6.59 42.22 65.44
 173 7 5.57 42.41 67.24
 174 8 5.47 41.32 67.2
 175 9 6.47 42.6 67.82
 176 10 4.3 42.87 67.89
 177 92 4.09 43.89 67.56
 178 93 3.48 42.2 67.62
 179 94 4.35 43.06 69.4
 180 95 5.45 43.24 69.96
 181 91 3.29 43.02 70.14
 182 96 3.41 43.01 71.14
 183 97 2.36 43.11 69.76
 184 15 4.65 42.62 64.85
 185 16 4.19 41.52 64.67
 186 1 4.14 43.67 64.23
 187 2 4.53 44.59 64.34
 188 5 3.1 43.5 63.23
 189 6 2.61 42.56 63.48
 190 7 2.02 44.61 63.37
 191 8 2.22 45.5 62.78
 192 9 1.1 44.19 62.97
 193 10 1.73 45.05 64.78
 194 22 2.05 46.27 65.3
 195 23 2.64 47.01 64.78
 196 98 1.68 46.31 66.66
 197 25 1.96 46.95 67.39
 198 28 1.13 45.07 67.05
 199 99 0.67 44.54 68.28
 200 100 0.76 45.16 69.16
 201 101 0.24 43.18 68.27
 202 102 0.05 42.75 69.24
 203 103 0.14 42.44 67.1
 204 104 -0.32 41.46 67.12
 205 105 0.5 43.02 65.91
 206 106 0.43 42.5 64.97
 207 30 1.07 44.31 65.86
 208 15 3.64 43.39 61.83
 209 16 4.85 43.44 61.54
 210 1 2.75 43.16 60.92
 211 2 1.8 42.99 61.24
 212 5 3.06 42.77 59.52
 213 6 3.97 42.18 59.41
 214 7 1.86 41.95 58.9
 215 8 0.94 42.52 58.95
 216 9 2 41.64 57.86
 217 20 1.71 40.43 59.8
 218 21 2.86 39.8 59.6
 219 15 3.36 44.04 58.76
 220 16 3.02 45.13 59.13
 221 1 3.81 43.93 57.48
 222 2 3.93 42.96 57.21
 223 5 4.25 44.96 56.55
 224 17 4.25 44.38 55.63
 225 18 3.51 45.76 56.64
 226 15 5.62 45.7 56.88
 227 16 5.89 45.89 58.07
 228 1 6.21 46.21 55.82
 229 2 5.88 46.09 54.87
 230 5 7.52 46.95 55.93
 231 6 7.56 47.27 56.98
 232 7 8.65 45.89 55.83
 233 8 9.59 46.43 55.93
 234 9 8.62 45.21 56.68
 235 107 8.66 45.08 54.62
 236 21 8.03 44.36 54.74
 237 15 7.6 48 54.78
 238 16 6.97 47.84 53.73
 239 1 8.53 48.94 54.85
 240 2 8.88 49.16 55.77
 241 5 8.77 50.03 53.89
 242 6 7.77 50.41 53.67
 243 7 9.59 51.11 54.64
 244 8 10.41 50.72 55.25
 245 9 10.15 51.72 53.93
 246 10 8.88 52.18 55.5
 247 11 8.45 53.23 54.99
 248 12 8.54 51.82 56.68
 249 13 8.19 52.53 57.3
 250 14 8.91 50.93 56.97
 251 15 9.49 49.53 52.56
 252 16 10.52 48.83 52.58
 253 1 9.06 50.09 51.41
 254 108 8.1 50.42 51.38
 255 109 9.58 50.01 50.56
ITEM: TIMESTEP
4
ITEM: NUMBER OF ATOMS
255
ITEM: BOX BOUNDS pp pp pp
23.959 104.131
2.326 83.004
39.801 120.179
ITEM: ATOMS id type xu yu zu
 1 1 56.43 50.56 69.21
 2 2 55.89 50.76 70.03
 3 3 56.24 49.58 69.06
 4 4 56.24 51.04 68.34
 5 5 57.82 50.69 69.48
 6 6 58.38 50.62 68.54
 7 7 58.15 52.04 70.13
 8 8 57.76 52.07 71.15
 9 9 59.23 52.05 70.3
 10 10 57.71 53.23 69.24
 11 11 56.5 53.5 69.17
 12 12 58.58 54.09 68.78
 13 13 58.26 54.87 68.22
 14 14 59.49 53.7 68.61
 15 15 58.24 49.55 70.36
 16 16 57.45 49.14 71.13
 17 1 59.39 48.89 70.14
 18 2 59.98 49.21 69.39
 19 5 59.83 47.74 71.03
 20 17 60.81 47.37 70.75
 21 18 59.85 48.07 72.07
 22 15 58.92 46.59 70.83
 23 16 58.4 46.06 71.79
 24 1 58.49 46.25 69.58
 25 2 59.01 46.69 68.84
 26 5 57.31 45.44 69.32
 27 6 56.58 45.66 70.1
 28 7 56.76 45.74 67.92
 29 8 57.53 45.47 67.2
 30 9 55.91 45.16 67.58
 31 10 56.37 47.23 67.75
 32 11 56.5 47.69 66.62
 33 19 55.92 47.93 68.71
 34 15 57.72 43.99 69.42
 35 16 56.87 43.07 69.38
 36 1 58.99 43.66 69.7
 37 2 59.71 44.37 69.78
 38 5 59.34 42.3 69.99
 39 6 58.65 41.7 69.39
 40 7 60.78 41.99 69.49
 41 8 60.95 42.6 68.61
 42 9 61.51 42.23 70.27
 43 20 61.07 40.2 69.16
 44 21 61.06 39.86 70.45
 45 15 59.13 41.9 71.49
 46 16 59.33 40.77 71.89
 47 1 58.83 42.92 72.27
 48 2 58.64 43.85 71.92
 49 5 58.72 42.81 73.8
 50 6 58.46 43.79 74.21
 51 7 57.4 42.11 74.1
 52 8 57.15 41.46 73.26
 53 9 57.49 41.56 75.04
 54 10 56.17 43.03 74.02
 55 22 55.85 43.84 72.91
 56 23 56.46 43.73 72.02
 57 24 54.75 44.65 72.97
 58 25 54.59 45.29 72.12
 59 26 53.92 44.68 74.1
 60 27 53.1 45.38 74.1
 61 28 54.18 43.81 75.15
 62 29 53.4 43.78 75.89
 63 30 55.28 42.96 75.13
 64 31 55.41 42.24 75.92
 65 15 59.96 42.36 74.61
 66 16 59.92 41.7 75.6
 67 1 61.14 42.65 74.11
 68 2 61.2 43.27 73.32
 69 5 62.3 41.93 74.63
 70 6 62.05 40.88 74.77
 71 7 63.5 41.97 73.67
 72 32 63.8 42.98 73.39
 73 33 64.69 41.31 74.38
 74 34 64.4 40.32 74.74
 75 35 65.62 41.27 73.8
 76 36 64.93 41.93 75.24
 77 37 63.22 41.28 72.31
 78 38 62.24 41.7 72.09
 79 39 64 41.71 71.67
 80 22 63.23 39.76 72.1
 81 40 64.26 39.41 71.96
 82 41 62.73 39.21 72.89
 83 42 62.77 39.54 71.14
 84 15 62.63 42.5 76.06
 85 16 62.75 43.73 76.23
 86 1 62.81 41.63 77.07
 87 2 62.66 40.64 76.94
 88 5 63.13 42.02 78.44
 89 6 62.84 43.06 78.6
 90 7 62.53 41.12 79.47
 91 8 63.03 40.16 79.36
 92 9 62.71 41.47 80.48
 93 10 61.06 40.79 79.32
 94 21 60.89 40.26 78.39
 95 22 60.25 42.16 79.34
 96 40 60.43 42.82 78.5
 97 41 59.2 41.87 79.26
 98 42 60.68 42.6 80.24
 99 30 60.7 39.89 80.52
 100 13 61.48 39.13 80.52
 101 14 60.68 40.31 81.52
 102 43 59.79 39.33 80.31
 103 15 64.69 41.99 78.5
 104 16 65.29 41.1 77.86
 105 44 65.36 42.82 79.28
 106 45 64.81 43.69 80.27
 107 46 65.14 43.02 81.61
 108 47 66.64 42.79 81.83
 109 48 66.9 42 83.04
 110 49 67.03 42.84 84.41
 111 50 65.69 43.09 84.83
 112 51 68.07 43.84 84.31
 113 52 67.63 41.77 85.63
 114 53 66.83 40.71 86.02
 115 54 67.26 39.91 87.07
 116 55 68.52 40.01 87.67
 117 56 69.34 41.06 87.16
 118 57 68.87 42.01 86.26
 119 58 69.45 42.91 86.11
 120 59 70.28 41.15 87.68
 121 60 69.01 38.87 88.59
 122 61 69.62 39.2 89.43
 123 62 69.53 38.16 87.94
 124 63 68.15 38.34 89
 125 64 66.65 39.05 87.31
 126 65 65.89 40.47 85.54
 127 66 67.86 41.7 82.98
 128 67 67.16 43.75 81.83
 129 68 64.73 42.01 81.68
 130 69 64.73 43.66 82.39
 131 70 65.21 44.7 80.28
 132 71 63.72 43.67 80.19
 133 72 66.84 42.74 79.28
 134 73 67.31 42.25 78.43
 135 3 67.23 43.76 79.33
 136 74 67.11 41.94 80.61
 137 75 66.5 41.03 80.59
 138 76 68.5 41.47 80.75
 139 77 69.63 42.4 80.68
 140 78 70.8 41.61 80.24
 141 79 70.44 40.13 80.11
 142 80 70.88 39.75 79.18
 143 81 70.78 39.65 81.03
 144 82 71.71 41.8 80.82
 145 83 71.15 41.95 79.27
 146 84 69.79 42.78 81.69
 147 85 69.48 43.18 79.94
 148 86 68.9 40.2 79.97
 149 87 68.67 40.32 78.91
 150 88 68.18 38.93 80.37
 151 89 67.87 38.05 79.56
 152 1 67.92 38.73 81.64
 153 2 68.07 39.56 82.2
 154 5 67.3 37.62 82.35
 155 6 67.84 36.7 82.12
 156 7 67.29 37.89 83.85
 157 8 68.32 38 84.18
 158 9 66.64 38.73 84.07
 159 10 66.79 36.63 84.6
 160 90 67.1 35.29 84.25
 161 24 66.44 34.53 85.09
 162 25 66.5 33.45 85.02
 163 91 65.74 35.23 85.97
 164 29 65.21 34.82 86.72
 165 30 65.94 36.62 85.64
 166 31 65.53 37.45 86.19
 167 15 65.88 37.33 81.8
 168 16 65.27 38.13 81.08
 169 1 65.36 36.12 82.02
 170 2 65.95 35.42 82.44
 171 5 64.01 35.66 81.5