ITEM: TIMESTEP
0
ITEM: NUMBER OF ATOMS
255
ITEM: BOX BOUNDS pp pp pp
-40.116 40.056
11.136 91.814
36.816 117.194
ITEM: ATOMS id type xu yu zu
 1 1 -1.1 48.5 78.96
 2 2 -0.54 47.84 78.45
 3 3 -1.07 49.37 78.45
 4 4 -2.05 48.16 79.06
 5 5 -0.45 48.69 80.27
 6 6 0.62 48.74 80.06
 7 7 -1.02 49.82 81.12
 8 8 -2.01 49.6 81.53
 9 9 -0.41 49.78 82.02
 10 10 -1 51.19 80.48
 11 11 -0.7 51.32 79.28
 12 12 -1.01 52.22 81.26
 13 13 -0.77 53.12 80.88
 14 14 -1.13 52.13 82.26
 15 15 -0.77 47.52 81.1
 16 16 -1.85 46.91 80.94
 17 1 0 47.18 82.12
 18 2 0.67 47.89 82.38
 19 5 -0.23 46.03 83.07
 20 17 0.6 45.97 83.77
 21 18 -1.14 46.19 83.64
 22 15 -0.43 44.66 82.36
 23 16 0.39 44.35 81.43
 24 1 -1.45 43.92 82.83
 25 2 -2.04 44.45 83.46
 26 5 -1.95 42.63 82.33
 27 6 -1.01 42.08 82.31
 28 7 -2.79 41.86 83.35
 29 8 -2.76 40.81 83.03
 30 9 -2.17 41.84 84.24
 31 10 -4.17 42.49 83.46
 32 11 -5.06 41.83 84.05
 33 19 -4.39 43.63 82.92
 34 15 -2.48 42.53 80.86
 35 16 -2.78 41.42 80.42
 36 1 -2.54 43.65 80.16
 37 2 -2.33 44.47 80.7
 38 5 -3.02 43.77 78.72
 39 6 -2.84 42.78 78.32
 40 7 -4.52 44.22 78.73
 41 8 -5.13 43.47 79.23
 42 9 -4.55 45.22 79.17
 43 20 -4.92 44.24 76.96
 44 21 -4.2 43.18 76.58
 45 15 -2.01 44.73 78.19
 46 16 -2.23 45.95 77.93
 47 1 -0.92 44.08 77.85
 48 2 -0.89 43.12 78.18
 49 5 0.31 44.55 77.24
 50 6 0.88 43.64 77.08
 51 7 -0.01 45.27 75.9
 52 8 -0.5 46.22 76.1
 53 9 0.97 45.57 75.52
 54 10 -0.69 44.28 74.97
 55 22 -2.05 44.37 74.57
 56 23 -2.68 45.13 75.02
 57 24 -2.61 43.44 73.61
 58 25 -3.66 43.34 73.38
 59 26 -1.79 42.44 73.02
 60 27 -2.25 41.73 72.36
 61 28 -0.41 42.38 73.34
 62 29 0.21 41.59 72.94
 63 30 0.14 43.31 74.3
 64 31 1.19 43.27 74.56
 65 15 1.13 45.48 78.1
 66 16 0.58 46.46 78.59
 67 1 2.34 45.16 78.49
 68 2 2.71 44.26 78.19
 69 5 3.16 46.15 79.26
 70 6 2.64 46.47 80.16
 71 7 4.53 45.42 79.7
 72 32 5.02 44.98 78.83
 73 33 5.55 46.36 80.4
 74 34 6.42 45.78 80.7
 75 35 6.03 47.02 79.69
 76 36 5.08 46.82 81.27
 77 37 4.2 44.22 80.56
 78 38 3.43 44.6 81.24
 79 39 3.7 43.47 79.95
 80 22 5.39 43.51 81.23
 81 40 6.16 43.25 80.51
 82 41 5.85 44.01 82.08
 83 42 4.98 42.57 81.6
 84 15 3.45 47.37 78.47
 85 16 3.73 47.36 77.27
 86 1 3.55 48.51 79.16
 87 2 3.3 48.45 80.14
 88 5 3.66 49.85 78.62
 89 6 2.9 50.05 77.86
 90 7 3.35 50.96 79.62
 91 8 2.39 50.74 80.1
 92 9 4.08 50.85 80.41
 93 10 3.37 52.46 79.05
 94 21 3.02 52.53 78.02
 95 22 4.72 53.01 79.25
 96 40 5.06 52.97 80.29
 97 41 5.47 52.51 78.64
 98 42 4.79 54.06 78.98
 99 30 2.44 53.33 79.84
 100 13 2.53 53.26 80.93
 101 14 2.67 54.36 79.57
 102 43 1.41 53.05 79.62
 103 15 5.03 49.98 78
 104 16 5.96 50.02 78.76
 105 44 5.33 50.16 76.68
 106 45 4.34 50.13 75.59
 107 46 4.15 51.56 75.27
 108 47 5.42 52.2 74.64
 109 48 5.14 53.54 74.26
 110 49 5.9 54.32 73.05
 111 50 6.11 53.31 72.07
 112 51 6.96 55.06 73.72
 113 52 4.7 55.48 72.56
 114 53 4.17 55.3 71.23
 115 54 3.23 56.16 70.75
 116 55 2.78 57.23 71.57
 117 56 3.3 57.46 72.89
 118 57 4.25 56.57 73.32
 119 58 4.67 56.67 74.31
 120 59 2.91 58.31 73.43
 121 60 1.72 58.07 70.92
 122 61 1.31 57.66 69.99
 123 62 2.26 58.99 70.71
 124 63 0.84 58.33 71.51
 125 64 2.78 56.05 69.77
 126 65 4.39 54.4 70.68
 127 66 5.65 54.09 74.94
 128 67 5.6 51.52 73.82
 129 68 3.96 52.09 76.21
 130 69 3.24 51.7 74.69
 131 70 4.79 49.67 74.71
 132 71 3.43 49.6 75.85
 133 72 6.63 50.53 76.14
 134 73 7.44 50.32 76.84
 135 3 6.8 49.9 75.27
 136 74 6.6 51.97 75.69
 137 75 6.35 52.59 76.55
 138 76 7.87 52.52 75.14
 139 77 8.59 51.74 74.12
 140 78 9.99 52.28 74.09
 141 79 10.3 52.83 75.52
 142 80 11.06 52.2 75.97
 143 81 10.57 53.88 75.41
 144 82 10.12 53.08 73.36
 145 83 10.71 51.54 73.72
 146 84 8.09 52.04 73.2
 147 85 8.66 50.65 74.18
 148 86 8.92 52.76 76.17
 149 87 8.96 51.91 76.85
 150 88 8.57 54.04 77.08
 151 89 8.48 54.02 78.25
 152 1 8.42 55.19 76.39
 153 2 8.25 55.13 75.4
 154 5 7.94 56.49 76.93
 155 6 8.39 56.55 77.92
 156 7 8.43 57.65 76.04
 157 8 9.52 57.7 76.06
 158 9 8.03 57.54 75.04
 159 10 7.95 59.01 76.54
 160 90 7.86 59.39 77.88
 161 24 7.64 60.69 77.94
 162 25 7.44 61.34 78.78
 163 91 7.61 61.17 76.67
 164 29 7.41 62.14 76.48
 165 30 7.74 60.1 75.8
 166 31 7.83 60 74.73
 167 15 6.42 56.37 77.21
 168 16 5.68 55.72 76.49
 169 1 5.99 57.1 78.17
 170 2 6.68 57.68 78.62
 171 5 4.6 57.16 78.6
 172 6 4.49 56.17 79.03
 173 7 4.38 58.17 79.76
 174 8 5.2 57.92 80.43
 175 9 4.37 59.21 79.43
 176 10 3.02 57.87 80.44
 177 92 2.15 58.25 79.89
 178 93 2.98 56.8 80.64
 179 94 3.03 58.59 81.77
 180 95 3.49 59.7 81.86
 181 91 2.47 58.11 82.82
 182 96 2.49 58.62 83.69
 183 97 2.11 57.16 82.84
 184 15 3.51 57.25 77.49
 185 16 3.51 58.14 76.64
 186 1 2.47 56.45 77.58
 187 2 2.55 55.85 78.39
 188 5 1.49 56.16 76.55
 189 6 1.43 56.98 75.83
 190 7 2.03 54.94 75.81
 191 8 2.88 55.32 75.25
 192 9 2.41 54.13 76.42
 193 10 1.17 54.33 74.78
 194 22 1.25 54.58 73.48
 195 23 1.87 55.3 72.98
 196 98 0.34 53.82 72.82
 197 25 -0.02 54.14 71.93
 198 28 -0.46 53.06 73.66
 199 99 -1.66 52.33 73.51
 200 100 -2.13 52.19 72.55
 201 101 -2.34 51.79 74.65
 202 102 -3.28 51.26 74.51
 203 103 -1.74 51.98 75.9
 204 104 -2.24 51.59 76.77
 205 105 -0.57 52.75 76.05
 206 106 -0.07 52.84 77
 207 30 0.08 53.37 74.94
 208 15 0.07 55.94 77.07
 209 16 -0.13 55.54 78.23
 210 1 -1.02 56.26 76.33
 211 2 -0.84 56.62 75.4
 212 5 -2.38 56.21 76.81
 213 6 -2.46 55.69 77.77
 214 7 -2.85 57.63 77.09
 215 8 -2.79 58.18 76.16
 216 9 -3.88 57.48 77.4
 217 20 -1.82 58.43 78.44
 218 21 -1.98 59.67 77.98
 219 15 -3.25 55.47 75.69
 220 16 -3.35 55.87 74.54
 221 1 -3.94 54.42 76.1
 222 2 -3.93 54.19 77.09
 223 5 -5.06 53.91 75.33
 224 17 -5.31 54.59 74.52
 225 18 -4.86 52.98 74.79
 226 15 -6.37 53.85 76.19
 227 16 -6.36 53.36 77.28
 228 1 -7.41 54.21 75.48
 229 2 -7.33 54.55 74.53
 230 5 -8.76 54.32 75.98
 231 6 -8.75 54.66 77.02
 232 7 -9.43 55.48 75.21
 233 8 -9.59 55.14 74.19
 234 9 -10.39 55.73 75.65
 235 107 -8.58 56.63 75.23
 236 21 -9.07 57.37 74.87
 237 15 -9.61 53.05 76
 238 16 -10.73 53.07 76.46
 239 1 -9.14 51.95 75.36
 240 2 -8.19 51.98 75.02
 241 5 -9.72 50.61 75.44
 242 6 -10.81 50.67 75.41
 243 7 -9.19 49.73 74.33
 244 8 -8.11 49.65 74.4
 245 9 -9.69 48.76 74.45
 246 10 -9.5 50.26 73.01
 247 11 -10.31 51.2 72.81
 248 12 -8.83 49.76 71.97
 249 13 -8.98 50.2 71.07
 250 14 -8.06 49.15 72.2
 251 15 -9.5 50 76.82
 252 16 -8.7 50.44 77.65
 253 1 -10.39 49.11 77.21
 254 108 -11.12 48.83 76.57
 255 109 -10.47 48.76 78.16
ITEM: TIMESTEP
1
ITEM: NUMBER OF ATOMS
255
ITEM: BOX BOUNDS pp pp pp
-12.466 67.706
0.985996 81.664
-35.569 44.809
ITEM: ATOMS id type xu yu zu
 1 1 31.36 40.32 9.54
 2 2 32.1 40.4 10.22
 3 3 30.48 40.69 9.86
 4 4 31.76 40.87 8.8
 5 5 31.32 38.8 9.4
 6 6 31.08 38.32 10.35
 7 7 30.27 38.36 8.38
 8 8 30.55 38.83 7.44
 9 9 30.32 37.29 8.15
 10 10 28.89 38.81 8.78
 11 11 28.7 39.81 9.5
 12 12 27.86 38.23 8.22
 13 13 26.95 38.48 8.59
 14 14 27.88 37.52 7.5
 15 15 32.67 38.25 9
 16 16 33.33 38.84 8.14
 17 1 33.11 37.19 9.63
 18 2 32.47 36.83 10.33
 19 5 34.3 36.37 9.24
 20 17 33.97 35.38 9.55
 21 18 34.51 36.3 8.17
 22 15 35.56 36.9 9.94
 23 16 35.68 38.05 10.51
 24 1 36.57 36.03 9.93
 25 2 36.48 35.13 9.47
 26 5 37.9 36.42 10.35
 27 6 37.88 36.88 11.34
 28 7 38.84 35.19 10.43
 29 8 38.93 34.78 9.43
 30 9 39.84 35.54 10.69
 31 10 38.46 34.03 11.29
 32 11 38.82 32.86 10.92
 33 19 37.74 34.2 12.27
 34 15 38.54 37.45 9.35
 35 16 39.55 38.1 9.77
 36 1 38.05 37.59 8.14
 37 2 37.53 36.81 7.77
 38 5 38.55 38.67 7.27
 39 6 39.63 38.74 7.25
 40 7 38.05 38.36 5.85
 41 8 36.97 38.37 5.72
 42 9 38.46 39.21 5.29
 43 20 38.65 36.88 4.94
 44 21 39.74 37.47 4.45
 45 15 37.99 40.1 7.59
 46 16 38.47 41.08 7
 47 1 37 40.19 8.56
 48 2 36.53 39.34 8.83
 49 5 36.27 41.44 8.94
 50 6 35.48 41.18 9.64
 51 7 37.25 42.34 9.77
 52 8 38.17 42.49 9.21
 53 9 36.89 43.35 9.97
 54 10 37.67 41.68 11.07
 55 22 38.94 41.06 11.19
 56 23 39.55 40.95 10.31
 57 24 39.44 40.66 12.46
 58 25 40.4 40.18 12.58
 59 26 38.61 40.89 13.62
 60 27 39.02 40.62 14.59
 61 28 37.33 41.42 13.47
 62 29 36.74 41.72 14.32
 63 30 36.92 41.91 12.22
 64 31 36.01 42.49 12.26
 65 15 35.59 42.19 7.78
 66 16 35.92 43.35 7.49
 67 1 34.66 41.52 7.16
 68 2 34.51 40.55 7.39
 69 5 33.97 42.06 5.94
 70 6 34.06 43.14 5.9
 71 7 34.58 41.56 4.65
 72 32 33.9 41.82 3.84
 73 33 35.96 42.27 4.44
 74 34 36.38 42.07 3.45
 75 35 35.94 43.36 4.47
 76 36 36.65 41.92 5.2
 77 37 34.67 40.04 4.52
 78 38 35.21 39.65 5.39
 79 39 33.65 39.7 4.66
 80 22 35.21 39.47 3.21
 81 40 34.5 39.74 2.44
 82 41 36.13 39.95 2.86
 83 42 35.17 38.4 3.38
 84 15 32.47 41.72 5.97
 85 16 32.05 40.77 6.61
 86 1 31.76 42.4 5.13
 87 2 32.06 43.17 4.55
 88 5 30.39 42.03 4.94
 89 6 29.98 41.97 5.94
 90 7 29.74 43.15 4.21
 91 8 30.28 43.35 3.29
 92 9 28.71 42.92 3.92
 93 10 29.69 44.47 5.06
 94 21 30.67 44.81 5.39
 95 22 28.83 44.32 6.29
 96 40 29.36 43.78 7.07
 97 41 28.69 45.27 6.81
 98 42 27.91 43.77 6.07
 99 30 29.04 45.6 4.24
 100 13 28.19 45.24 3.66
 101 14 28.67 46.4 4.89
 102 43 29.76 45.98 3.53
 103 15 30.11 40.73 4.1
 104 16 30.97 40.37 3.33
 105 44 28.92 40.05 4.19
 106 45 27.85 40.18 5.17
 107 46 26.59 40.78 4.5
 108 47 26.2 40.06 3.21
 109 48 25.2 40.8 2.48
 110 49 23.87 41.29 3.19
 111 50 24.05 42.72 3.53
 112 51 23.52 40.27 4.12
 113 52 22.74 41.12 1.88
 114 53 22.53 42.28 1.06
 115 54 21.65 42.19 0.03
 116 55 21.05 40.92 -0.34
 117 56 21.17 39.82 0.47
 118 57 22.08 39.9 1.56
 119 58 22.31 39.02 2.15
 120 59 20.51 38.98 0.34
 121 60 20.29 40.88 -1.6
 122 61 20.81 40.34 -2.4
 123 62 20.16 41.89 -1.98
 124 63 19.33 40.49 -1.26
 125 64 21.59 43.02 -0.66
 126 65 23.14 43.15 1.22
 127 66 25.56 41.74 2.37
 128 67 25.76 39.12 3.53
 129 68 26.78 41.82 4.24
 130 69 25.74 40.72 5.17
 131 70 27.72 39.22 5.67
 132 71 28.1 40.88 5.97
 133 72 28.52 39.13 3.13
 134 73 29.31 38.83 2.44
 135 3 28.16 38.2 3.59
 136 74 27.39 39.72 2.24
 137 75 27.75 40.63 1.75
 138 76 27.02 38.86 1.02
 139 77 26.23 37.61 1.3
 140 78 26.24 36.88 -0.05
 141 79 27.35 37.54 -0.89
 142 80 28 36.8 -1.35
 143 81 26.81 38.14 -1.63
 144 82 25.31 37.12 -0.56
 145 83 26.43 35.81 0.07
 146 84 25.25 37.84 1.72
 147 85 26.75 36.97 2
 148 86 28.06 38.55 0.05
 149 87 28.76 37.87 0.54
 150 88 28.78 39.7 -0.64
 151 89 30.04 39.62 -0.86
 152 1 28.13 40.79 -1.02
 153 2 27.14 40.89 -0.83
 154 5 28.77 42.05 -1.52
 155 6 29.54 41.84 -2.26
 156 7 27.78 43.01 -2.2
 157 8 27.18 42.47 -2.93
 158 9 27.16 43.45 -1.42
 159 10 28.34 44.17 -2.91
 160 90 28.88 45.3 -2.26
 161 24 28.96 46.19 -3.27
 162 25 29.26 47.22 -3.14
 163 91 28.73 45.63 -4.48
 164 29 29.01 46.07 -5.35
 165 30 28.21 44.41 -4.23
 166 31 27.74 43.72 -4.91
 167 15 29.62 42.78 -0.46
 168 16 29.12 42.95 0.66
 169 1 30.85 43.2 -0.82
 170 2 31.09 43.19 -1.8
 171 5 31.74 43.79 0.14
 172 6 31.98 43.08 0.92
 173 7 33.06 43.99 -0.66
 174 8 33.48 43.07 -1.06
 175 9 32.97 44.65 -1.52
 176 10 34.26 44.51 0.2
 177 92 34.02 45.43 0.73
 178 93 34.35 43.71 0.94
 179 94 35.59 44.74 -0.54
 180 95 35.73 44.36 -1.71
 181 91 36.59 45.37 0.08
 182 96 37.44 45.48 -0.46
 183 97 36.54 45.8 0.99
 184 15 31.2 45.05 0.89
 185 16 31.71 45.3 1.99
 186 1 30.39 45.93 0.35
 187 2 30.18 45.67 -0.61
 188 5 30.19 47.31 0.73
 189 6 30.67 47.58 1.67
 190 7 30.86 48.23 -0.3
 191 8 30.37 48.02 -1.25
 192 9 30.61 49.26 -0.06
 193 10 32.37 48.05 -0.58
 194 22 32.97 47.7 -1.75
 195 23 32.43 47.49 -2.66
 196 98 34.37 47.6 -1.56
 197 25 35.05 47.35 -2.27
 198 28 34.62 47.96 -0.25
 199 99 35.89 48.1 0.35
 200 100 36.75 47.9 -0.27
 201 101 35.9 48.49 1.74
 202 102 36.9 48.46 2.15
 203 103 34.69 48.8 2.39
 204 104 34.66 49.12 3.42
 205 105 33.48 48.77 1.67
 206 106 32.59 49.03 2.22
 207 30 33.38 48.28 0.33
 208 15 28.74 47.7 0.99
 209 16 28.35 48.34 1.99
 210 1 27.89 47.25 0.06
 211 2 28.2 46.59 -0.64
 212 5 26.46 47.7 0.2
 213 6 26.38 48.71 0.6
 214 7 25.76 47.65 -1.14
 215 8 25.63 46.65 -1.54
 216 9 24.81 48.18 -1.08
 217 20 26.72 48.42 -2.44
 218 21 26.72 49.69 -2.06
 219 15 25.67 46.79 1.17
 220 16 25.69 45.57 1.12
 221 1 24.92 47.39 2.09
 222 2 24.91 48.4 2.07
 223 5 24.01 46.61 2.94
 224 17 24.57 45.75 3.3
 225 18 23.63 47.18 3.78
 226 15 22.8 46.26 2.01
 227 16 22.81 46.25 0.75
 228 1 21.7 45.9 2.63
 229 2 21.72 46.07 3.63
 230 5 20.39 45.61 2.01
 231 6 20.6 45.1 1.07
 232 7 19.53 44.76 2.95
 233 8 19.98 43.79 3.14
 234 9 19.42 45.26 3.91
 235 107 18.3 44.44 2.45
 236 21 18.08 43.51 2.53
 237 15 19.59 46.91 1.72
 238 16 19.71 47.88 2.48
 239 1 18.64 46.94 0.7
 240 2 18.57 46.2 0.02
 241 5 17.78 48.05 0.31
 242 6 18.36 48.97 0.28
 243 7 17.32 47.63 -1.11
 244 8 18.23 47.39 -1.65
 245 9 16.69 46.74 -1.05
 246 10 16.5 48.71 -1.8
 247 11 17 49.79 -2.03
 248 12 15.3 48.48 -2.21
 249 13 14.91 49.16 -2.84
 250 14 14.84 47.58 -2.23
 251 15 16.6 48.14 1.28
 252 16 15.75 49 1.27
 253 1 16.43 47.16 2.17
 254 108 17.12 46.42 2.17
 255 109 15.81 47.38 2.93
ITEM: TIMESTEP
2
ITEM: NUMBER OF ATOMS
255
ITEM: BOX BOUNDS pp pp pp
-15.916 64.256
-37.079 43.599
-31.694 48.684
ITEM: ATOMS id type xu yu zu
 1 1 21.32 10.07 -0.52
 2 2 21.46 11.05 -0.73
 3 3 20.33 9.9 -0.64
 4 4 21.91 9.53 -1.14
 5 5 21.77 9.87 0.88
 6 6 22.72 10.39 0.98
 7 7 20.75 10.37 1.85
 8 8 19.8 9.9 1.6
 9 9 21.09 10.07 2.85
 10 10 20.56 11.87 1.78
 11 11 21.29 12.61 1.2
 12 12 19.82 12.47 2.65
 13 13 19.97 13.47 2.68
 14 14 19.17 12.02 3.27
 15 15 22.04 8.35 1.13
 16 16 21.51 7.57 0.32
 17 1 23.1 8.03 1.9
 18 2 23.55 8.8 2.38
 19 5 23.82 6.74 2.06
 20 17 24.78 7.09 2.45
 21 18 23.36 6.06 2.78
 22 15 24.27 5.98 0.83
 23 16 24.32 4.75 0.89
 24 1 24.42 6.65 -0.31
 25 2 24.39 7.65 -0.14
 26 5 24.26 6.12 -1.64
 27 6 23.32 5.59 -1.76
 28 7 24.19 7.25 -2.7
 29 8 25.19 7.52 -3.03
 30 9 23.77 6.75 -3.58
 31 10 23.43 8.46 -2.28
 32 11 22.32 8.64 -2.85
 33 19 23.94 9.32 -1.51
 34 15 25.37 5.15 -2.01
 35 16 25.09 4.18 -2.67
 36 1 26.6 5.27 -1.52
 37 2 26.85 6.1 -0.99
 38 5 27.58 4.2 -1.56
 39 6 27.45 3.72 -2.53
 40 7 29.08 4.79 -1.42
 41 8 29.16 5.67 -2.06
 42 9 29.3 4.99 -0.37
 43 20 30.28 3.57 -2.02
 44 21 30.09 2.56 -1.16
 45 15 27.26 3.19 -0.48
 46 16 28.16 2.65 0.14
 47 1 26 2.86 -0.33
 48 2 25.42 3.48 -0.87
 49 5 25.38 1.86 0.55
 50 6 24.3 1.98 0.53
 51 7 25.54 0.43 -0.08
 52 8 26.49 -0.03 0.18
 53 9 24.78 -0.21 0.37
 54 10 25.4 0.36 -1.62
 55 22 26.52 0.6 -2.48
 56 23 27.45 0.85 -1.98
 57 24 26.41 0.45 -3.88
 58 25 27.22 0.77 -4.52
 59 26 25.24 -0.11 -4.45
 60 27 25.07 -0.31 -5.49
 61 28 24.13 -0.39 -3.61
 62 29 23.24 -0.85 -4
 63 30 24.19 -0.11 -2.22
 64 31 23.36 -0.25 -1.54
 65 15 25.85 1.92 2.01
 66 16 26.21 0.96 2.67
 67 1 25.94 3.14 2.52
 68 2 25.4 3.82 2.02
 69 5 26.29 3.34 3.91
 70 6 27.11 2.66 4.15
 71 7 26.84 4.74 4.22
 72 32 26.14 5.47 3.82
 73 33 27.03 4.86 5.76
 74 34 27.69 4.06 6.06
 75 35 27.59 5.78 5.97
 76 36 26.15 4.82 6.4
 77 37 28.22 5.13 3.61
 78 38 29.01 4.58 4.12
 79 39 28.1 4.77 2.59
 80 22 28.49 6.64 3.7
 81 40 27.55 7.1 3.4
 82 41 28.71 7.05 4.69
 83 42 29.23 6.85 2.93
 84 15 25.18 2.94 4.91
 85 16 24 3.32 4.77
 86 1 25.6 2.17 5.88
 87 2 26.58 1.99 6.05
 88 5 24.68 1.63 6.94
 89 6 23.82 1.22 6.41
 90 7 25.29 0.41 7.69
 91 8 24.5 -0.22 8.08
 92 9 25.76 -0.18 6.91
 93 10 26.15 0.61 8.9
 94 21 25.49 1.08 9.63
 95 22 27.24 1.57 8.69
 96 40 26.88 2.59 8.76
 97 41 27.88 1.47 9.57
 98 42 27.83 1.47 7.78
 99 30 26.6 -0.85 9.25
 100 13 27.22 -1.14 8.4
 101 14 27.09 -0.8 10.23
 102 43 25.85 -1.63 9.31
 103 15 24.03 2.67 7.82
 104 16 24.6 3.76 8.12
 105 44 22.84 2.5 8.41
 106 45 22.07 1.3 8.36
 107 46 22.03 0.61 9.69
 108 47 21.46 1.49 10.91
 109 48 21.67 0.83 12.23
 110 49 20.84 -0.47 12.75
 111 50 21.12 -0.38 14.18
 112 51 21.2 -1.61 11.9
 113 52 19.23 0.25 12.36
 114 53 18.68 -0.04 11.15
 115 54 17.54 0.64 10.72
 116 55 16.88 1.57 11.57
 117 56 17.3 1.62 12.88
 118 57 18.45 0.92 13.26
 119 58 18.8 1.03 14.27
 120 59 16.61 2.15 13.53
 121 60 15.79 2.46 11.05
 122 61 15.51 3.2 11.81
 123 62 14.93 1.87 10.73
 124 63 16.2 3 10.2
 125 64 17.15 0.49 9.73
 126 65 19.17 -0.75 10.51
 127 66 22.58 0.39 12.25
 128 67 20.45 1.78 10.65
 129 68 23.05 0.41 10.04
 130 69 21.39 -0.26 9.73
 131 70 21.04 1.51 8.05
 132 71 22.55 0.62 7.66
 133 72 22.19 3.43 9.35
 134 73 22.69 4.4 9.26
 135 3 21.12 3.5 9.15
 136 74 22.25 2.88 10.79
 137 75 23.32 2.71 10.94
 138 76 21.9 3.91 11.86
 139 77 20.5 4.42 11.74
 140 78 20.48 5.75 12.43
 141 79 21.93 6.12 12.83
 142 80 22.14 7.16 12.58
 143 81 22.05 6.05 13.91
 144 82 19.94 5.56 13.35
 145 83 20.07 6.55 11.8
 146 84 19.81 3.78 12.28
 147 85 20.13 4.63 10.74
 148 86 22.77 5.11 11.94
 149 87 22.83 5.54 10.94
 150 88 24.23 4.88 12.43
 151 89 25.18 5.55 11.99
 152 1 24.43 4.09 13.47
 153 2 23.63 3.54 13.76
 154 5 25.74 3.68 14.02
 155 6 26.3 4.57 14.29
 156 7 25.44 2.91 15.33
 157 8 24.96 3.58 16.05
 158 9 24.81 2.06 15.06
 159 10 26.68 2.48 16.08
 160 90 27.31 1.22 16.11
 161 24 28.26 1.27 17.07
 162 25 28.97 0.49 17.29
 163 91 28.3 2.54 17.56
 164 29 29.1 2.86 18.09
 165 30 27.34 3.29 16.98
 166 31 27.19 4.34 17.15
 167 15 26.58 2.81 13.03
 168 16 26.02 2.05 12.21
 169 1 27.9 2.76 13.17
 170 2 28.3 3.42 13.82
 171 5 28.84 2.26 12.16
 172 6 28.48 2.53 11.17
 173 7 30.25 2.91 12.28
 174 8 30.88 2.58 11.45
 175 9 30.02 3.97 12.19
 176 10 31.12 2.75 13.51
 177 92 31.01 1.71 13.81
 178 93 32.15 2.96 13.21
 179 94 30.78 3.61 14.71
 180 95 30.01 4.54 14.7
 181 91 31.49 3.31 15.74
 182 96 31.36 3.75 16.64
 183 97 32.01 2.44 15.76
 184 15 29 0.76 12.16
 185 16 29.43 0.2 11.11
 186 1 28.68 0.13 13.31
 187 2 28.53 0.73 14.11
 188 5 28.55 -1.29 13.64
 189 6 29.29 -1.72 12.97
 190 7 28.79 -1.54 15.13
 191 8 29.6 -0.95 15.58
 192 9 27.85 -1.34 15.65
 193 10 28.85 -3.05 15.43
 194 22 27.88 -3.84 15.92
 195 23 26.88 -3.46 16.03
 196 98 28.37 -5.05 16.35
 197 25 27.86 -5.85 16.69
 198 28 29.78 -5.12 16.19
 199 99 30.71 -6.09 16.47
 200 100 30.29 -6.93 17
 201 101 32.04 -5.84 16.24
 202 102 32.72 -6.64 16.49
 203 103 32.39 -4.66 15.61
 204 104 33.41 -4.4 15.38
 205 105 31.47 -3.7 15.27
 206 106 31.85 -2.71 15.06
 207 30 30.09 -3.89 15.48
 208 15 27.13 -1.84 13.32
 209 16 26.2 -1.18 13.75
 210 1 27.03 -2.96 12.64
 211 2 27.88 -3.3 12.21
 212 5 25.8 -3.59 12.09
 213 6 25.31 -2.85 11.47
 214 7 26.1 -4.77 11.17
 215 8 26.41 -4.43 10.18
 216 9 26.99 -5.31 11.47
 217 20 24.68 -5.82 10.98
 218 21 25.34 -6.95 10.68
 219 15 24.79 -3.93 13.24
 220 16 25.14 -4.66 14.16
 221 1 23.58 -3.37 13.15
 222 2 23.24 -2.96 12.29
 223 5 22.56 -3.59 14.2
 224 17 21.58 -3.34 13.79
 225 18 22.47 -4.64 14.45
 226 15 22.83 -2.67 15.43
 227 16 22.05 -2.75 16.39
 228 1 23.88 -1.82 15.5
 229 2 24.49 -1.95 14.71
 230 5 24.49 -1.2 16.65
 231 6 25.19 -0.48 16.22
 232 7 23.45 -0.21 17.23
 233 8 23.12 0.4 16.39
 234 9 22.56 -0.69 17.64
 235 107 24.01 0.58 18.3
 236 21 23.48 1.37 18.37
 237 15 25.16 -2.02 17.68
 238 16 24.93 -3.2 17.87
 239 1 26.01 -1.35 18.47
 240 2 26.26 -0.42 18.15
 241 5 26.82 -1.76 19.65
 242 6 26.35 -2.68 20
 243 7 28.26 -2.24 19.29
 244 8 28.21 -3.05 18.56
 245 9 28.84 -1.45 18.81
 246 10 28.91 -2.73 20.58
 247 11 28.78 -3.89 20.95
 248 12 29.78 -1.94 21.19
 249 13 30.3 -2.35 21.95
 250 14 29.79 -0.98 20.88
 251 15 26.58 -0.72 20.76
 252 16 27.13 0.32 20.66
 253 1 25.61 -1.13 21.63
 254 108 25.21 -2.06 21.53
 255 109 25.53 -0.6 22.48
ITEM: TIMESTEP
3
ITEM: NUMBER OF ATOMS
255
ITEM: BOX BOUNDS pp pp pp
24.204 104.376
19.656 100.334
14.161 94.539
ITEM: ATOMS id type xu yu zu
 1 1 66.59 58.41 58.56
 2 2 66.22 58.75 57.69
 3 3 66.59 57.4 58.65
 4 4 67.55 58.71 58.65
 5 5 65.7 58.95 59.62
 6 6 65.89 60.01 59.77
 7 7 64.23 58.79 59.32
 8 8 64.13 57.74 59.07
 9 9 63.74 58.97 60.27
 10 10 63.77 59.68 58.1
 11 11 64.55 60.43 57.6
 12 12 62.5 59.89 57.9
 13 13 62.31 60.55 57.15
 14 14 61.74 59.46 58.41
 15 15 66.06 58.39 61.01
 16 16 66.29 57.18 61.08
 17 1 66.09 59.13 62.07
 18 2 65.95 60.13 61.97
 19 5 66.26 58.72 63.46
 20 17 66.07 59.56 64.12
 21 18 65.72 57.78 63.59
 22 15 67.75 58.35 63.6
 23 16 68.59 59.11 63.23
 24 1 68 57.13 64.15
 25 2 67.16 56.6 64.33
 26 5 69.27 56.56 64.42
 27 6 69.87 57.28 64.98
 28 7 69.18 55.4 65.42
 29 8 68.6 54.55 65.06
 30 9 70.2 55.05 65.59
 31 10 68.8 55.67 66.83
 32 11 68.95 54.71 67.64
 33 19 68.47 56.81 67.25
 34 15 70.1 56.15 63.21
 35 16 71.28 55.91 63.39
 36 1 69.48 55.97 62.01
 37 2 68.48 56.12 62.03
 38 5 70.11 55.78 60.63
 39 6 71.18 55.6 60.73
 40 7 69.51 54.56 60
 41 8 69.32 53.76 60.71
 42 9 68.52 54.78 59.59
 43 20 70.65 54.15 58.67
 44 21 69.73 53.7 57.81
 45 15 69.94 57.09 59.81
 46 16 68.89 57.71 59.78
 47 1 71 57.48 59.09
 48 2 71.84 56.92 59.02
 49 5 70.95 58.61 58.17
 50 6 70.28 59.38 58.55
 51 7 72.45 59.2 58.16
 52 8 72.68 59.36 59.22
 53 9 73.15 58.48 57.75
 54 10 72.7 60.45 57.28
 55 22 71.74 61.51 57.25
 56 23 70.78 61.42 57.74
 57 24 71.9 62.68 56.52
 58 25 71.14 63.43 56.39
 59 26 73.17 62.9 55.89
 60 27 73.43 63.8 55.36
 61 28 74.08 61.82 55.87
 62 29 75.03 61.94 55.37
 63 30 73.86 60.59 56.5
 64 31 74.6 59.82 56.39
 65 15 70.44 58.31 56.75
 66 16 70.33 59.29 56.04
 67 1 70.13 57.03 56.34
 68 2 70.21 56.31 57.04
 69 5 69.42 56.79 55.06
 70 6 70 57.11 54.2
 71 7 69.2 55.25 54.75
 72 32 68.79 54.88 55.69
 73 33 68.31 55 53.47
 74 34 68.32 53.98 53.1
 75 35 67.29 55.3 53.73
 76 36 68.59 55.59 52.6
 77 37 70.51 54.59 54.42
 78 38 71.13 54.84 55.28
 79 39 70.42 53.51 54.53
 80 22 71.35 54.88 53.17
 81 40 71.37 55.96 53.08
 82 41 72.35 54.46 53.26
 83 42 70.93 54.47 52.25
 84 15 68.11 57.65 54.91
 85 16 67.4 57.72 55.85
 86 1 67.81 58.29 53.76
 87 2 68.38 58.06 52.95
 88 5 66.6 59.1 53.54
 89 6 66.69 59.94 54.22
 90 7 66.59 59.6 52.08
 91 8 65.86 60.41 52.11
 92 9 67.53 60.04 51.75
 93 10 66.13 58.69 50.99
 94 21 65.09 58.41 51.16
 95 22 67.05 57.46 50.88
 96 40 66.67 56.8 50.1
 97 41 68.1 57.74 50.76
 98 42 66.97 56.89 51.8
 99 30 66.38 59.4 49.68
 100 13 65.69 60.25 49.65
 101 14 67.4 59.79 49.65
 102 43 66.15 58.82 48.78
 103 15 65.32 58.23 53.81
 104 16 65.31 57.01 53.66
 105 44 64.2 58.86 54.24
 106 45 64.02 60.32 54.23
 107 46 62.91 60.68 53.25
 108 47 61.65 59.94 53.75
 109 48 60.53 60.29 52.86
 110 49 59.98 61.88 52.75
 111 50 60.75 62.31 51.61
 112 51 60.1 62.42 54.13
 113 52 58.26 61.6 52.4
 114 53 57.35 61.3 53.49
 115 54 55.95 61.1 53.23
 116 55 55.49 61.09 51.91
 117 56 56.42 61.36 50.87
 118 57 57.77 61.61 51.08
 119 58 58.45 61.68 50.25
 120 59 56.08 61.32 49.85
 121 60 54.1 60.9 51.43
 122 61 54.11 60.31 50.51
 123 62 53.69 61.9 51.27
 124 63 53.55 60.37 52.21
 125 64 55.23 60.84 53.98
 126 65 57.69 61.08 54.49
 127 66 60.76 60.2 51.88
 128 67 61.23 60.18 54.72
 129 68 63.17 60.42 52.23
 130 69 62.65 61.74 53.33
 131 70 63.66 60.62 55.22
 132 71 64.88 60.96 54.04
 133 72 63.06 58.03 54.6
 134 73 63.16 56.95 54.43
 135 3 62.89 58.15 55.67
 136 74 61.81 58.37 53.76
 137 75 62.17 58.09 52.77
 138 76 60.57 57.64 54.16
 139 77 59.89 58.07 55.42
 140 78 59.02 56.9 55.81
 141 79 59.18 55.79 54.9
 142 80 59.04 54.83 55.4
 143 81 58.48 55.92 54.08
 144 82 57.94 57.05 55.93
 145 83 59.41 56.64 56.8
 146 84 59.31 58.97 55.22
 147 85 60.62 58.24 56.2
 148 86 60.56 56.15 54.21
 149 87 61.41 55.85 54.82
 150 88 60.69 55.41 52.89
 151 89 61.54 54.58 52.65
 152 1 59.8 55.76 51.93
 153 2 59.19 56.52 52.2
 154 5 59.97 55.35 50.55
 155 6 59.99 54.26 50.52
 156 7 58.78 55.77 49.76
 157 8 57.9 55.29 50.2
 158 9 58.7 56.85 49.87
 159 10 58.77 55.36 48.31
 160 90 59.32 56.13 47.24
 161 24 59.29 55.37 46.16
 162 25 59.59 55.67 45.17
 163 91 58.68 54.19 46.42
 164 29 58.66 53.44 45.75
 165 30 58.38 54.13 47.79
 166 31 58.05 53.24 48.31
 167 15 61.3 55.83 50.03
 168 16 61.91 56.8 50.59
 169 1 61.85 55.15 49.04
 170 2 61.34 54.36 48.66
 171 5 63.22 55.36 48.55
 172 6 63.91 55.18 49.36
 173 7 63.53 54.21 47.58
 174 8 64.61 54.13 47.41
 175 9 63.31 53.26 48.08
 176 10 62.74 54.27 46.23
 177 92 61.77 54.74 46.44
 178 93 63.28 54.97 45.59
 179 94 62.48 52.9 45.51
 180 95 61.36 52.55 45.08
 181 91 63.43 52.05 45.35
 182 96 63.07 51.2 44.94
 183 97 64.36 52.12 45.75
 184 15 63.53 56.72 47.79
 185 16 64.65 57.04 47.46
 186 1 62.5 57.42 47.44
 187 2 61.55 57.07 47.56
 188 5 62.51 58.62 46.61
 189 6 62.77 58.34 45.59
 190 7 61.1 59.21 46.56
 191 8 60.4 58.55 46.05
 192 9 60.83 59.28 47.61
 193 10 60.89 60.52 45.91
 194 22 60.64 61.68 46.6
 195 23 60.61 61.75 47.68
 196 98 60.47 62.74 45.8
 197 25 60.44 63.7 46.11
 198 28 60.49 62.37 44.46
 199 99 60.18 63.07 43.33
 200 100 59.96 64.13 43.3
 201 101 60.08 62.42 42.13
 202 102 59.73 62.97 41.27
 203 103 60.34 61.03 42.04
 204 104 60.39 60.56 41.06
 205 105 60.64 60.35 43.24
 206 106 60.84 59.28 43.24
 207 30 60.7 60.97 44.5
 208 15 63.42 59.71 47.18
 209 16 63.1 60.46 48.12
 210 1 64.44 59.94 46.28
 211 2 64.66 59.26 45.56
 212 5 65.51 60.94 46.59
 213 6 65.64 60.86 47.66
 214 7 66.83 60.5 45.85
 215 8 66.97 59.42 45.93
 216 9 66.68 60.66 44.79
 217 20 68.23 61.54 46.48
 218 21 67.83 62.63 45.82
 219 15 65.13 62.39 46.22
 220 16 65.76 63.29 46.77
 221 1 64.1 62.63 45.34
 222 2 63.59 61.84 44.98
 223 5 63.76 63.96 44.98
 224 17 64.66 64.3 44.46
 225 18 62.88 63.94 44.34
 226 15 63.51 64.84 46.23
 227 16 62.9 64.49 47.26
 228 1 64.17 65.99 46.14
 229 2 64.75 65.94 45.31
 230 5 64.33 67.04 47.22
 231 6 64.97 67.84 46.86
 232 7 62.93 67.76 47.46
 233 8 62.79 68.23 46.49
 234 9 62.16 67.01 47.63
 235 107 62.98 68.79 48.39
 236 21 62.95 68.3 49.21
 237 15 65.03 66.6 48.5
 238 16 65.58 67.36 49.27
 239 1 65.15 65.27 48.75
 240 2 64.84 64.66 48.01
 241 5 65.99 64.71 49.87
 242 6 65.74 65.24 50.79
 243 7 65.62 63.17 50.07
 244 8 65.58 62.67 49.11
 245 9 66.28 62.72 50.82
 246 10 64.26 63.11 50.76
 247 11 64.12 63.63 51.88
 248 12 63.33 62.29 50.32
 249 13 62.45 62.24 50.81
 250 14 63.56 61.67 49.55
 251 15 67.53 64.75 49.48
 252 16 68.39 65.13 50.29
 253 1 68.01 64.3 48.33
 254 108 67.32 63.87 47.72
 255 109 69 64.3 48.15
ITEM: TIMESTEP
4
ITEM: NUMBER OF ATOMS
255
ITEM: BOX BOUNDS pp pp pp
-14.981 65.191
-17.954 62.724
-31.254 49.124
ITEM: ATOMS id type xu yu zu
 1 1 29.45 28.06 -8.64
 2 2 28.72 28.7 -8.95
 3 3 29.77 27.62 -9.49
 4 4 30.23 28.57 -8.25
 5 5 28.97 27.01 -7.72
 6 6 27.93 26.73 -7.92
 7 7 29.55 25.64 -8.02
 8 8 30.63 25.75 -8.02
 9 9 29.35 25.06 -7.11
 10 10 28.95 24.99 -9.18
 11 11 27.82 25.06 -9.49
 12 12 29.77 24.53 -10.09
 13 13 29.39 24.31 -11
 14 14 30.74 24.5 -9.8
 15 15 29.15 27.5 -6.28
 16 16 29.92 28.38 -5.95
 17 1 28.38 26.95 -5.35
 18 2 27.76 26.22 -5.66
 19 5 28.47 27.1 -3.9
 20 17 29.51 27.31 -3.64
 21 18 27.9 27.91 -3.46
 22 15 28.06 25.87 -3.07
 23 16 27.6 24.9 -3.66
 24 1 28.26 25.96 -1.78
 25 2 28.57 26.82 -1.36
 26 5 27.76 24.97 -0.92
 27 6 27.59 24.01 -1.4
 28 7 28.86 24.66 0.13
 29 8 28.84 25.39 0.94
 30 9 28.66 23.65 0.5
 31 10 30.26 24.72 -0.43
 32 11 30.95 25.8 -0.29
 33 19 30.65 23.71 -1.1
 34 15 26.55 25.43 -0.13
 35 16 26.42 26.63 0.24
 36 1 25.73 24.43 0.16
 37 2 25.74 23.57 -0.37
 38 5 24.55 24.75 1.02
 39 6 24.07 25.58 0.49
 40 7 23.5 23.57 1.2
 41 8 23.92 22.79 1.84
 42 9 22.63 23.94 1.74
 43 20 23 22.97 -0.51
 44 21 21.98 23.82 -0.67
 45 15 24.85 25.32 2.41
 46 16 24.58 26.48 2.74
 47 1 25.54 24.56 3.22
 48 2 25.58 23.57 3.03
 49 5 25.74 24.84 4.66
 50 6 25.34 25.82 4.91
 51 7 24.99 23.83 5.48
 52 8 25.31 22.83 5.2
 53 9 25.14 24.03 6.54
 54 10 23.49 24.01 5.28
 55 22 22.86 25.17 5.74
 56 23 23.43 25.83 6.38
 57 24 21.47 25.41 5.53
 58 25 21.03 26.26 6.02
 59 26 20.71 24.49 4.76
 60 27 19.67 24.68 4.51
 61 28 21.33 23.32 4.27
 62 29 20.84 22.57 3.66
 63 30 22.69 23.17 4.44
 64 31 23.19 22.26 4.15
 65 15 27.29 24.81 5.03
 66 16 28.14 24.35 4.26
 67 1 27.7 25.35 6.14
 68 2 26.99 25.74 6.75
 69 5 29.13 25.62 6.55
 70 6 29.77 25.55 5.67
 71 7 29.2 26.97 7.25
 72 32 28.59 27.01 8.15
 73 33 30.65 27.22 7.76
 74 34 30.94 26.3 8.28
 75 35 31.36 27.54 6.99
 76 36 30.62 28.01 8.51
 77 37 28.98 28.14 6.25
 78 38 29.81 28.25 5.55
 79 39 28.08 27.99 5.66
 80 22 28.72 29.43 6.98
 81 40 29.57 29.78 7.56
 82 41 28.64 30.13 6.15
 83 42 27.82 29.48 7.6
 84 15 29.53 24.42 7.38
 85 16 30.7 24.06 7.3
 86 1 28.66 23.95 8.24
 87 2 27.72 24.31 8.18
 88 5 28.84 22.94 9.26
 89 6 29.87 22.58 9.23
 90 7 28.36 23.47 10.63
 91 8 27.39 23.94 10.5
 92 9 28.17 22.63 11.31
 93 10 29.31 24.57 11.27
 94 21 29.64 25.2 10.45
 95 22 30.51 23.94 11.97
 96 40 31.02 24.72 12.54
 97 41 30.08 23.24 12.69
 98 42 31.12 23.38 11.26
 99 30 28.51 25.48 12.22
 100 13 29.27 26.09 12.7
 101 14 27.86 26.08 11.57
 102 43 28.04 24.81 12.94
 103 15 27.98 21.77 8.79
 104 16 27.12 21.99 7.97
 105 44 28.14 20.53 9.3
 106 45 29.25 20.22 10.16
 107 46 28.79 19.69 11.46
 108 47 27.72 18.6 11.29
 109 48 27.12 18.39 12.58
 110 49 27.77 17.18 13.5
 111 50 28.75 17.87 14.31
 112 51 28.02 16.06 12.63
 113 52 26.24 17.02 14.42
 114 53 25.84 17.91 15.41
 115 54 24.63 17.7 16.15
 116 55 23.97 16.5 15.92
 117 56 24.43 15.57 14.99
 118 57 25.56 15.81 14.3
 119 58 25.78 15.07 13.54
 120 59 23.91 14.64 14.79
 121 60 22.63 16.2 16.6
 122 61 22.47 15.12 16.55
 123 62 21.75 16.61 16.12
 124 63 22.63 16.46 17.66
 125 64 24.42 18.34 17
 126 65 26.34 18.86 15.39
 127 66 26.22 17.98 12.4
 128 67 28.13 17.73 10.78
 129 68 28.32 20.49 12.04
 130 69 29.69 19.31 11.95
 131 70 29.87 19.46 9.69
 132 71 29.91 21.07 10.35
 133 72 27.21 19.47 9.08
 134 73 26.4 19.77 8.41
 135 3 27.82 18.65 8.71
 136 74 26.54 19.15 10.46
 137 75 26.28 20.13 10.86
 138 76 25.39 18.24 10.46
 139 77 25.56 16.95 9.72
 140 78 24.2 16.43 9.21
 141 79 23.27 17.56 9.63
 142 80 22.48 17.65 8.88
 143 81 22.87 17.28 10.6
 144 82 23.9 15.41 9.48
 145 83 24.31 16.5 8.13
 146 84 25.98 16.22 10.41
 147 85 26.2 17.02 8.84
 148 86 24.15 18.79 9.88
 149 87 24.31 19.29 8.92
 150 88 23.42 19.89 10.72
 151 89 23.2 21.04 10.37
 152 1 23.15 19.5 11.99
 153 2 23.25 18.53 12.26
 154 5 22.7 20.41 13.04
 155 6 22.1 21.16 12.52
 156 7 21.8 19.69 14.12
 157 8 22.51 19.01 14.6
 158 9 21.5 20.41 14.89
 159 10 20.68 19.01 13.41
 160 90 20.79 17.71 12.97
 161 24 19.59 17.4 12.38
 162 25 19.4 16.48 11.85
 163 91 18.7 18.42 12.38
 164 29 17.72 18.35 12.16
 165 30 19.35 19.41 13.11
 166 31 18.89 20.26 13.58
 167 15 23.96 21.19 13.62
 168 16 25.07 21.08 13.14
 169 1 23.75 22.12 14.63
 170 2 22.8 22.41 14.78
 171 5 24.81 22.73 15.42
 172 6 25.71 22.91 14.82
 173 7 24.27 24.09 15.94
 174 8 23.3 23.97 16.42
 175 9 25.02 24.46 16.64
 176 10 24.26 25.14 14.81
 177 92 25.27 25.17 14.4
 178 93 23.71 24.82 13.92
 179 94 23.85 26.5 15.42
 180 95 22.68 26.74 15.76
 181 91 24.73 27.45 15.51